Merged slit + ring-check filtered guest
68246
    1OM     OM1    1   3.802   2.983   0.273  0.0000  0.0000  0.0000
    2OM     OM1    2   3.885   2.800   0.429  0.0000  0.0000  0.0000
    3OM     OM1    3   3.694   2.956   0.513  0.0000  0.0000  0.0000
    4OM     OM1    4   3.932   3.054   0.492  0.0000  0.0000  0.0000
    5OM     OM1    5   3.604   6.494   1.241  0.0000  0.0000  0.0000
    6OM     OM1    6   3.832   6.426   1.330  0.0000  0.0000  0.0000
    7OM     OM1    7   5.982   5.574   8.850  0.0000  0.0000  0.0000
    8OM     OM1    8   6.188   5.415   8.854  0.0000  0.0000  0.0000
    9OM     OM1    9   6.213   5.678   8.872  0.0000  0.0000  0.0000
   10OM     OM1   10   6.104   5.556   9.071  0.0000  0.0000  0.0000
   11OM     OM1   11   5.061   3.626   1.221  0.0000  0.0000  0.0000
   12OM     OM1   12   4.864   3.595   1.054  0.0000  0.0000  0.0000
   13OM     OM1   13   4.915   3.832   1.153  0.0000  0.0000  0.0000
   14OM     OM1   14   8.973   4.194   9.431  0.0000  0.0000  0.0000
   15OM     OM1   15   8.921   3.940   9.354  0.0000  0.0000  0.0000
   16OM     OM1   16   8.731   4.104   9.402  0.0000  0.0000  0.0000
   17OM     OM1   17   8.879   4.148   9.197  0.0000  0.0000  0.0000
   18OM     OM1   18   5.240   9.191   1.209  0.0000  0.0000  0.0000
   19OM     OM1   19   0.775   5.026   1.423  0.0000  0.0000  0.0000
   20OM     OM1   20   0.623   4.880   1.272  0.0000  0.0000  0.0000
   21OM     OM1   21   0.800   4.763   1.408  0.0000  0.0000  0.0000
   22OM     OM1   22   5.851   6.763   1.103  0.0000  0.0000  0.0000
   23OM     OM1   23   5.642   6.899   1.136  0.0000  0.0000  0.0000
   24OM     OM1   24   5.807   6.891   1.325  0.0000  0.0000  0.0000
   25OM     OM1   25   5.860   7.028   1.094  0.0000  0.0000  0.0000
   26OM     OM1   26   1.676   0.657   0.783  0.0000  0.0000  0.0000
   27OM     OM1   27   1.736   0.820   0.585  0.0000  0.0000  0.0000
   28OM     OM1   28   1.540   0.882   0.746  0.0000  0.0000  0.0000
   29OM     OM1   29   1.780   0.879   0.845  0.0000  0.0000  0.0000
   30OM     OM1   30   7.849   5.850   8.421  0.0000  0.0000  0.0000
   31OM     OM1   31   7.985   6.014   8.263  0.0000  0.0000  0.0000
   32OM     OM1   32   8.098   5.912   8.471  0.0000  0.0000  0.0000
   33OM     OM1   33   8.628   6.176   0.217  0.0000  0.0000  0.0000
   34OM     OM1   34   8.779   6.098   0.411  0.0000  0.0000  0.0000
   35OM     OM1   35   8.879   6.157   0.168  0.0000  0.0000  0.0000
   36OM     OM1   36   8.789   6.343   0.336  0.0000  0.0000  0.0000
   37OM     OM1   37   3.322   6.641   9.495  0.0000  0.0000  0.0000
   38OM     OM1   38   3.547   6.744   9.443  0.0000  0.0000  0.0000
   39OM     OM1   39   3.343   6.889   9.543  0.0000  0.0000  0.0000
   40OM     OM1   40   3.363   6.841   9.296  0.0000  0.0000  0.0000
   41OM     OM1   41   1.367   3.048   9.419  0.0000  0.0000  0.0000
   42OM     OM1   42   1.338   2.942   0.050  0.0000  0.0000  0.0000
   43OM     OM1   43   1.158   3.115   9.552  0.0000  0.0000  0.0000
   44OM     OM1   44   1.394   3.195   0.029  0.0000  0.0000  0.0000
   45OM     OM1   45   8.070   0.953   8.354  0.0000  0.0000  0.0000
   46OM     OM1   46   7.824   0.977   8.403  0.0000  0.0000  0.0000
   47OM     OM1   47   7.945   1.199   8.390  0.0000  0.0000  0.0000
   48OM     OM1   48   8.003   1.037   8.588  0.0000  0.0000  0.0000
   49OM     OM1   49   1.547   8.029   9.196  0.0000  0.0000  0.0000
   50OM     OM1   50   1.334   8.153   9.246  0.0000  0.0000  0.0000
   51OM     OM1   51   1.366   8.058   9.004  0.0000  0.0000  0.0000
   52OM     OM1   52   1.521   8.256   9.074  0.0000  0.0000  0.0000
   53OM     OM1   53   7.057   6.501   8.859  0.0000  0.0000  0.0000
   54OM     OM1   54   6.858   6.394   8.726  0.0000  0.0000  0.0000
   55OM     OM1   55   7.019   6.571   8.608  0.0000  0.0000  0.0000
   56OM     OM1   56   6.844   6.643   8.788  0.0000  0.0000  0.0000
   57OM     OM1   57   3.872   1.024   0.005  0.0000  0.0000  0.0000
   58OM     OM1   58   3.860   1.011   0.266  0.0000  0.0000  0.0000
   59OM     OM1   59   3.972   1.210   0.139  0.0000  0.0000  0.0000
   60OM     OM1   60   3.714   1.197   0.148  0.0000  0.0000  0.0000
   61OM     OM1   61   1.819   1.420   8.277  0.0000  0.0000  0.0000
   62OM     OM1   62   1.904   1.546   8.489  0.0000  0.0000  0.0000
   63OM     OM1   63   1.774   1.339   8.524  0.0000  0.0000  0.0000
   64OM     OM1   64   1.641   1.538   8.424  0.0000  0.0000  0.0000
   65OM     OM1   65   1.223   3.136   8.350  0.0000  0.0000  0.0000
   66OM     OM1   66   1.481   3.129   8.265  0.0000  0.0000  0.0000
   67OM     OM1   67   1.416   3.199   8.505  0.0000  0.0000  0.0000
   68OM     OM1   68   0.971   2.326   1.307  0.0000  0.0000  0.0000
   69OM     OM1   69   0.716   2.352   1.363  0.0000  0.0000  0.0000
   70OM     OM1   70   4.139   4.598   0.306  0.0000  0.0000  0.0000
   71OM     OM1   71   4.191   4.691   0.052  0.0000  0.0000  0.0000
   72OM     OM1   72   3.991   4.544   0.084  0.0000  0.0000  0.0000
   73OM     OM1   73   4.234   4.449   0.122  0.0000  0.0000  0.0000
   74OM     OM1   74   4.776   0.132   1.192  0.0000  0.0000  0.0000
   75OM     OM1   75   4.949   9.547   1.238  0.0000  0.0000  0.0000
   76OM     OM1   76   4.835   9.573   0.998  0.0000  0.0000  0.0000
   77OM     OM1   77   4.702   9.489   1.216  0.0000  0.0000  0.0000
   78OM     OM1   78   3.653   3.941   8.624  0.0000  0.0000  0.0000
   79OM     OM1   79   3.551   4.179   8.622  0.0000  0.0000  0.0000
   80OM     OM1   80   3.785   4.156   8.699  0.0000  0.0000  0.0000
   81OM     OM1   81   3.608   4.054   8.858  0.0000  0.0000  0.0000
   82OM     OM1   82   3.015   0.836   0.738  0.0000  0.0000  0.0000
   83OM     OM1   83   2.765   0.901   0.710  0.0000  0.0000  0.0000
   84OM     OM1   84   2.904   1.014   0.903  0.0000  0.0000  0.0000
   85OM     OM1   85   2.942   1.075   0.656  0.0000  0.0000  0.0000
   86OM     OM1   86   5.584   1.997   0.276  0.0000  0.0000  0.0000
   87OM     OM1   87   5.938   1.806   0.549  0.0000  0.0000  0.0000
   88OM     OM1   88   5.810   1.991   0.406  0.0000  0.0000  0.0000
   89OM     OM1   89   6.031   1.875   0.314  0.0000  0.0000  0.0000
   90OM     OM1   90   8.893   3.879   1.299  0.0000  0.0000  0.0000
   91OM     OM1   91   8.870   4.125   1.214  0.0000  0.0000  0.0000
   92OM     OM1   92   8.667   4.015   1.336  0.0000  0.0000  0.0000
   93OM     OM1   93   0.226   1.506   9.077  0.0000  0.0000  0.0000
   94OM     OM1   94   0.354   1.605   9.290  0.0000  0.0000  0.0000
   95OM     OM1   95   0.462   1.420   9.150  0.0000  0.0000  0.0000
   96OM     OM1   96   0.250   1.361   9.280  0.0000  0.0000  0.0000
   97OM     OM1   97   5.872   1.390   9.564  0.0000  0.0000  0.0000
   98OM     OM1   98   5.679   1.502   9.419  0.0000  0.0000  0.0000
   99OM     OM1   99   5.830   1.332   9.303  0.0000  0.0000  0.0000
  100OM     OM1  100   5.661   1.256   9.491  0.0000  0.0000  0.0000
  101OM     OM1  101   0.572   3.154   0.300  0.0000  0.0000  0.0000
  102OM     OM1  102   0.338   3.258   0.305  0.0000  0.0000  0.0000
  103OM     OM1  103   0.403   3.094   0.112  0.0000  0.0000  0.0000
  104OM     OM1  104   0.373   2.995   0.358  0.0000  0.0000  0.0000
  105OM     OM1  105   0.400   2.090   0.499  0.0000  0.0000  0.0000
  106OM     OM1  106   0.563   2.271   0.399  0.0000  0.0000  0.0000
  107OM     OM1  107   0.590   2.193   0.647  0.0000  0.0000  0.0000
  108OM     OM1  108   0.646   2.025   0.452  0.0000  0.0000  0.0000
  109OM     OM1  109   7.637   5.051   0.471  0.0000  0.0000  0.0000
  110OM     OM1  110   7.650   5.169   0.244  0.0000  0.0000  0.0000
  111OM     OM1  111   7.488   5.263   0.420  0.0000  0.0000  0.0000
  112OM     OM1  112   7.429   5.034   0.309  0.0000  0.0000  0.0000
  113OM     OM1  113   9.540   0.195   9.184  0.0000  0.0000  0.0000
  114OM     OM1  114   9.300   0.234   9.254  0.0000  0.0000  0.0000
  115OM     OM1  115   9.455   0.150   9.441  0.0000  0.0000  0.0000
  116OM     OM1  116   9.400   9.594   9.246  0.0000  0.0000  0.0000
  117OM     OM1  117   4.084   2.263   9.557  0.0000  0.0000  0.0000
  118OM     OM1  118   3.867   2.369   9.432  0.0000  0.0000  0.0000
  119OM     OM1  119   4.106   2.462   9.419  0.0000  0.0000  0.0000
  120OM     OM1  120   3.968   2.477   0.045  0.0000  0.0000  0.0000
  121OM     OM1  121   1.115   2.547   1.307  0.0000  0.0000  0.0000
  122OM     OM1  122   1.181   2.799   1.336  0.0000  0.0000  0.0000
  123OM     OM1  123   0.591   6.835   8.355  0.0000  0.0000  0.0000
  124OM     OM1  124   0.524   7.077   8.419  0.0000  0.0000  0.0000
  125OM     OM1  125   0.355   6.951   8.286  0.0000  0.0000  0.0000
  126OM     OM1  126   5.383   5.213   8.952  0.0000  0.0000  0.0000
  127OM     OM1  127   5.584   5.105   9.076  0.0000  0.0000  0.0000
  128OM     OM1  128   5.379   5.207   9.211  0.0000  0.0000  0.0000
  129OM     OM1  129   5.349   4.987   9.069  0.0000  0.0000  0.0000
  130OM     OM1  130   6.070   8.666   9.246  0.0000  0.0000  0.0000
  131OM     OM1  131   5.954   8.843   9.091  0.0000  0.0000  0.0000
  132OM     OM1  132   6.145   8.700   8.991  0.0000  0.0000  0.0000
  133OM     OM1  133   5.913   8.589   9.054  0.0000  0.0000  0.0000
  134OM     OM1  134   5.833   5.151   9.161  0.0000  0.0000  0.0000
  135OM     OM1  135   5.779   4.919   9.074  0.0000  0.0000  0.0000
  136OM     OM1  136   5.664   5.001   9.292  0.0000  0.0000  0.0000
  137OM     OM1  137   1.291   5.071   1.262  0.0000  0.0000  0.0000
  138OM     OM1  138   1.526   5.031   1.183  0.0000  0.0000  0.0000
  139OM     OM1  139   1.430   5.275   1.167  0.0000  0.0000  0.0000
  140OM     OM1  140   0.504   3.714   8.704  0.0000  0.0000  0.0000
  141OM     OM1  141   0.580   3.962   8.751  0.0000  0.0000  0.0000
  142OM     OM1  142   0.546   3.897   8.511  0.0000  0.0000  0.0000
  143OM     OM1  143   0.745   3.786   8.641  0.0000  0.0000  0.0000
  144OM     OM1  144   6.183   2.314   8.600  0.0000  0.0000  0.0000
  145OM     OM1  145   6.079   2.282   8.362  0.0000  0.0000  0.0000
  146OM     OM1  146   6.272   2.121   8.455  0.0000  0.0000  0.0000
  147OM     OM1  147   6.314   2.367   8.368  0.0000  0.0000  0.0000
  148OM     OM1  148   2.487   3.401   0.628  0.0000  0.0000  0.0000
  149OM     OM1  149   2.182   3.435   0.300  0.0000  0.0000  0.0000
  150OM     OM1  150   2.437   3.449   0.365  0.0000  0.0000  0.0000
  151OM     OM1  151   2.363   3.449   0.112  0.0000  0.0000  0.0000
  152OM     OM1  152   7.793   1.409   0.247  0.0000  0.0000  0.0000
  153OM     OM1  153   7.579   1.487   0.155  0.0000  0.0000  0.0000
  154OM     OM1  154   7.721   1.677   0.262  0.0000  0.0000  0.0000
  155OM     OM1  155   7.624   1.504   0.421  0.0000  0.0000  0.0000
  156OM     OM1  156   9.081   4.290   0.029  0.0000  0.0000  0.0000
  157OM     OM1  157   8.916   4.442   9.516  0.0000  0.0000  0.0000
  158OM     OM1  158   9.133   4.383   9.373  0.0000  0.0000  0.0000
  159OM     OM1  159   4.999   2.474   9.019  0.0000  0.0000  0.0000
  160OM     OM1  160   5.001   2.950   8.799  0.0000  0.0000  0.0000
  161OM     OM1  161   5.065   2.696   8.732  0.0000  0.0000  0.0000
  162OM     OM1  162   5.088   2.775   8.977  0.0000  0.0000  0.0000
  163OM     OM1  163   8.202   7.601   0.579  0.0000  0.0000  0.0000
  164OM     OM1  164   8.168   7.350   0.675  0.0000  0.0000  0.0000
  165OM     OM1  165   8.288   7.537   0.813  0.0000  0.0000  0.0000
  166OM     OM1  166   8.029   7.547   0.768  0.0000  0.0000  0.0000
  167OM     OM1  167   1.535   1.299   8.604  0.0000  0.0000  0.0000
  168OM     OM1  168   1.692   1.115   8.472  0.0000  0.0000  0.0000
  169OM     OM1  169   1.727   1.164   8.724  0.0000  0.0000  0.0000
  170OM     OM1  170   0.812   1.844   0.542  0.0000  0.0000  0.0000
  171OM     OM1  171   0.784   1.928   0.786  0.0000  0.0000  0.0000
  172OM     OM1  172   0.803   1.677   0.745  0.0000  0.0000  0.0000
  173OM     OM1  173   1.018   1.841   0.708  0.0000  0.0000  0.0000
  174OM     OM1  174   5.931   0.035   1.027  0.0000  0.0000  0.0000
  175OM     OM1  175   5.814   0.254   1.055  0.0000  0.0000  0.0000
  176OM     OM1  176   5.943   0.196   0.826  0.0000  0.0000  0.0000
  177OM     OM1  177   5.715   0.094   0.876  0.0000  0.0000  0.0000
  178OM     OM1  178   4.793   7.092   1.352  0.0000  0.0000  0.0000
  179OM     OM1  179   4.697   7.267   1.188  0.0000  0.0000  0.0000
  180OM     OM1  180   5.520   6.370   1.090  0.0000  0.0000  0.0000
  181OM     OM1  181   5.299   6.238   1.040  0.0000  0.0000  0.0000
  182OM     OM1  182   5.532   6.199   0.903  0.0000  0.0000  0.0000
  183OM     OM1  183   5.383   6.406   0.867  0.0000  0.0000  0.0000
  184OM     OM1  184   5.559   3.438   0.585  0.0000  0.0000  0.0000
  185OM     OM1  185   5.398   3.320   0.410  0.0000  0.0000  0.0000
  186OM     OM1  186   5.655   3.329   0.377  0.0000  0.0000  0.0000
  187OM     OM1  187   5.540   3.178   0.566  0.0000  0.0000  0.0000
  188OM     OM1  188   7.310   6.443   0.301  0.0000  0.0000  0.0000
  189OM     OM1  189   7.319   6.705   0.283  0.0000  0.0000  0.0000
  190OM     OM1  190   7.362   6.556   0.076  0.0000  0.0000  0.0000
  191OM     OM1  191   7.119   6.571   0.177  0.0000  0.0000  0.0000
  192OM     OM1  192   6.363   2.511   1.248  0.0000  0.0000  0.0000
  193OM     OM1  193   8.654   0.792   0.467  0.0000  0.0000  0.0000
  194OM     OM1  194   8.924   0.776   0.521  0.0000  0.0000  0.0000
  195OM     OM1  195   8.759   0.929   0.648  0.0000  0.0000  0.0000
  196OM     OM1  196   8.761   0.664   0.677  0.0000  0.0000  0.0000
  197OM     OM1  197   7.182   3.343   9.016  0.0000  0.0000  0.0000
  198OM     OM1  198   7.149   3.388   9.272  0.0000  0.0000  0.0000
  199OM     OM1  199   7.361   3.476   9.150  0.0000  0.0000  0.0000
  200OM     OM1  200   7.122   3.583   9.112  0.0000  0.0000  0.0000
  201OM     OM1  201   3.453   3.847   0.779  0.0000  0.0000  0.0000
  202OM     OM1  202   3.345   3.705   0.973  0.0000  0.0000  0.0000
  203OM     OM1  203   3.502   3.602   0.803  0.0000  0.0000  0.0000
  204OM     OM1  204   3.484   3.585   1.156  0.0000  0.0000  0.0000
  205OM     OM1  205   2.434   2.307   1.305  0.0000  0.0000  0.0000
  206OM     OM1  206   2.383   2.604   0.889  0.0000  0.0000  0.0000
  207OM     OM1  207   2.369   2.480   1.117  0.0000  0.0000  0.0000
  208OM     OM1  208   2.573   2.642   1.061  0.0000  0.0000  0.0000
  209OM     OM1  209   3.466   8.084   0.332  0.0000  0.0000  0.0000
  210OM     OM1  210   3.399   7.844   0.242  0.0000  0.0000  0.0000
  211OM     OM1  211   3.243   7.974   0.415  0.0000  0.0000  0.0000
  212OM     OM1  212   3.475   7.861   0.478  0.0000  0.0000  0.0000
  213OM     OM1  213   7.074   5.181   9.401  0.0000  0.0000  0.0000
  214OM     OM1  214   7.293   5.119   9.531  0.0000  0.0000  0.0000
  215OM     OM1  215   7.447   5.070   9.326  0.0000  0.0000  0.0000
  216OM     OM1  216   7.391   4.877   9.492  0.0000  0.0000  0.0000
  217OM     OM1  217   7.914   1.375   8.574  0.0000  0.0000  0.0000
  218OM     OM1  218   8.078   1.571   8.549  0.0000  0.0000  0.0000
  219OM     OM1  219   8.139   1.384   8.711  0.0000  0.0000  0.0000
  220OM     OM1  220   7.936   1.545   8.771  0.0000  0.0000  0.0000
  221OM     OM1  221   8.608   8.977   8.261  0.0000  0.0000  0.0000
  222OM     OM1  222   8.515   9.220   8.363  0.0000  0.0000  0.0000
  223OM     OM1  223   8.483   8.987   8.482  0.0000  0.0000  0.0000
  224OM     OM1  224   6.421   3.457   0.066  0.0000  0.0000  0.0000
  225OM     OM1  225   6.335   3.241   9.548  0.0000  0.0000  0.0000
  226OM     OM1  226   6.219   3.324   0.153  0.0000  0.0000  0.0000
  227OM     OM1  227   6.188   3.452   9.537  0.0000  0.0000  0.0000
  228OM     OM1  228   7.103   0.391   0.759  0.0000  0.0000  0.0000
  229OM     OM1  229   6.987   0.530   0.950  0.0000  0.0000  0.0000
  230OM     OM1  230   7.119   0.648   0.757  0.0000  0.0000  0.0000
  231OM     OM1  231   6.886   0.540   0.715  0.0000  0.0000  0.0000
  232OM     OM1  232   7.489   5.682   1.217  0.0000  0.0000  0.0000
  233OM     OM1  233   7.334   5.473   1.246  0.0000  0.0000  0.0000
  234OM     OM1  234   7.230   5.710   1.184  0.0000  0.0000  0.0000
  235OM     OM1  235   6.350   0.966   0.439  0.0000  0.0000  0.0000
  236OM     OM1  236   6.448   0.804   0.618  0.0000  0.0000  0.0000
  237OM     OM1  237   6.218   0.764   0.506  0.0000  0.0000  0.0000
  238OM     OM1  238   6.239   0.954   0.685  0.0000  0.0000  0.0000
  239OM     OM1  239   3.460   1.191   8.257  0.0000  0.0000  0.0000
  240OM     OM1  240   3.515   1.357   8.454  0.0000  0.0000  0.0000
  241OM     OM1  241   3.699   1.255   8.305  0.0000  0.0000  0.0000
  242OM     OM1  242   2.805   1.571   8.416  0.0000  0.0000  0.0000
  243OM     OM1  243   2.576   1.454   8.447  0.0000  0.0000  0.0000
  244OM     OM1  244   2.795   1.312   8.454  0.0000  0.0000  0.0000
  245OM     OM1  245   9.522   1.010   1.457  0.0000  0.0000  0.0000
  246OM     OM1  246   8.748   5.838   9.171  0.0000  0.0000  0.0000
  247OM     OM1  247   8.506   5.953   9.138  0.0000  0.0000  0.0000
  248OM     OM1  248   8.673   5.953   8.947  0.0000  0.0000  0.0000
  249OM     OM1  249   8.727   6.096   9.156  0.0000  0.0000  0.0000
  250OM     OM1  250   8.103   4.849   0.978  0.0000  0.0000  0.0000
  251OM     OM1  251   8.139   5.174   1.023  0.0000  0.0000  0.0000
  252OM     OM1  252   8.034   5.183   0.784  0.0000  0.0000  0.0000
  253OM     OM1  253   8.241   5.035   0.844  0.0000  0.0000  0.0000
  254OM     OM1  254   8.497   1.884   1.180  0.0000  0.0000  0.0000
  255OM     OM1  255   8.442   1.632   1.226  0.0000  0.0000  0.0000
  256OM     OM1  256   6.318   1.387   8.936  0.0000  0.0000  0.0000
  257OM     OM1  257   6.251   1.549   9.131  0.0000  0.0000  0.0000
  258OM     OM1  258   6.487   1.569   9.019  0.0000  0.0000  0.0000
  259OM     OM1  259   6.265   1.627   8.882  0.0000  0.0000  0.0000
  260OM     OM1  260   9.027   6.910   8.352  0.0000  0.0000  0.0000
  261OM     OM1  261   9.212   6.856   8.545  0.0000  0.0000  0.0000
  262OM     OM1  262   9.197   6.711   8.331  0.0000  0.0000  0.0000
  263OM     OM1  263   9.274   6.966   8.319  0.0000  0.0000  0.0000
  264OM     OM1  264   7.966   2.439   9.251  0.0000  0.0000  0.0000
  265OM     OM1  265   8.083   2.641   9.147  0.0000  0.0000  0.0000
  266OM     OM1  266   8.068   2.629   9.405  0.0000  0.0000  0.0000
  267OM     OM1  267   7.854   2.681   9.260  0.0000  0.0000  0.0000
  268OM     OM1  268   9.315   5.962   9.321  0.0000  0.0000  0.0000
  269OM     OM1  269   9.338   6.186   9.194  0.0000  0.0000  0.0000
  270OM     OM1  270   9.196   6.001   9.087  0.0000  0.0000  0.0000
  271OM     OM1  271   9.113   6.131   9.308  0.0000  0.0000  0.0000
  272OM     OM1  272   8.542   2.762   8.373  0.0000  0.0000  0.0000
  273OM     OM1  273   8.608   2.559   8.538  0.0000  0.0000  0.0000
  274OM     OM1  274   8.795   2.697   8.399  0.0000  0.0000  0.0000
  275OM     OM1  275   5.282   3.521   0.706  0.0000  0.0000  0.0000
  276OM     OM1  276   5.337   3.631   0.941  0.0000  0.0000  0.0000
  277OM     OM1  277   5.302   3.781   0.729  0.0000  0.0000  0.0000
  278OM     OM1  278   5.516   3.628   0.753  0.0000  0.0000  0.0000
  279OM     OM1  279   7.720   1.105   9.196  0.0000  0.0000  0.0000
  280OM     OM1  280   7.510   1.240   9.157  0.0000  0.0000  0.0000
  281OM     OM1  281   7.661   1.165   8.941  0.0000  0.0000  0.0000
  282OM     OM1  282   7.742   1.344   9.105  0.0000  0.0000  0.0000
  283OM     OM1  283   6.948   3.590   1.229  0.0000  0.0000  0.0000
  284OM     OM1  284   7.036   3.361   1.134  0.0000  0.0000  0.0000
  285OM     OM1  285   7.193   3.533   1.255  0.0000  0.0000  0.0000
  286OM     OM1  286   6.850   5.966   0.512  0.0000  0.0000  0.0000
  287OM     OM1  287   6.841   6.152   0.679  0.0000  0.0000  0.0000
  288OM     OM1  288   7.072   6.103   0.569  0.0000  0.0000  0.0000
  289OM     OM1  289   6.895   6.204   0.413  0.0000  0.0000  0.0000
  290OM     OM1  290   8.891   7.514   9.452  0.0000  0.0000  0.0000
  291OM     OM1  291   8.816   7.476   9.199  0.0000  0.0000  0.0000
  292OM     OM1  292   8.666   7.599   9.378  0.0000  0.0000  0.0000
  293OM     OM1  293   8.842   7.344   0.046  0.0000  0.0000  0.0000
  294OM     OM1  294   3.010   1.617   9.529  0.0000  0.0000  0.0000
  295OM     OM1  295   3.034   1.546   0.181  0.0000  0.0000  0.0000
  296OM     OM1  296   3.102   1.390   9.585  0.0000  0.0000  0.0000
  297OM     OM1  297   3.156   1.285   9.355  0.0000  0.0000  0.0000
  298OM     OM1  298   1.457   4.417   0.196  0.0000  0.0000  0.0000
  299OM     OM1  299   1.677   4.320   0.304  0.0000  0.0000  0.0000
  300OM     OM1  300   1.630   4.280   0.051  0.0000  0.0000  0.0000
  301OM     OM1  301   1.501   4.152   0.227  0.0000  0.0000  0.0000
  302OM     OM1  302   2.396   4.040   0.187  0.0000  0.0000  0.0000
  303OM     OM1  303   2.217   3.891   0.287  0.0000  0.0000  0.0000
  304OM     OM1  304   2.144   4.126   0.215  0.0000  0.0000  0.0000
  305OM     OM1  305   2.312   4.118   0.409  0.0000  0.0000  0.0000
  306OM     OM1  306   3.314   1.915   1.263  0.0000  0.0000  0.0000
  307OM     OM1  307   3.355   1.737   1.057  0.0000  0.0000  0.0000
  308OM     OM1  308   3.122   1.830   1.129  0.0000  0.0000  0.0000
  309OM     OM1  309   3.253   1.661   1.282  0.0000  0.0000  0.0000
  310OM     OM1  310   5.579   0.015   9.194  0.0000  0.0000  0.0000
  311OM     OM1  311   5.637   0.035   9.443  0.0000  0.0000  0.0000
  312OM     OM1  312   5.457   0.192   9.328  0.0000  0.0000  0.0000
  313OM     OM1  313   5.718   0.221   9.288  0.0000  0.0000  0.0000
  314OM     OM1  314   9.450   6.834   8.208  0.0000  0.0000  0.0000
  315OM     OM1  315   9.508   6.981   8.423  0.0000  0.0000  0.0000
  316OM     OM1  316   1.151   1.212   0.877  0.0000  0.0000  0.0000
  317OM     OM1  317   1.169   1.410   0.716  0.0000  0.0000  0.0000
  318OM     OM1  318   0.970   1.241   0.699  0.0000  0.0000  0.0000
  319OM     OM1  319   0.976   1.402   0.906  0.0000  0.0000  0.0000
  320OM     OM1  320   0.805   8.696   1.249  0.0000  0.0000  0.0000
  321OM     OM1  321   6.755   6.188   0.198  0.0000  0.0000  0.0000
  322OM     OM1  322   6.939   6.380   0.217  0.0000  0.0000  0.0000
  323OM     OM1  323   7.014   6.129   0.206  0.0000  0.0000  0.0000
  324OM     OM1  324   6.038   5.656   9.596  0.0000  0.0000  0.0000
  325OM     OM1  325   5.942   5.461   9.467  0.0000  0.0000  0.0000
  326OM     OM1  326   6.090   5.411   0.078  0.0000  0.0000  0.0000
  327OM     OM1  327   5.838   5.500   0.088  0.0000  0.0000  0.0000
  328OM     OM1  328   4.270   7.350   8.861  0.0000  0.0000  0.0000
  329OM     OM1  329   4.196   7.276   9.102  0.0000  0.0000  0.0000
  330OM     OM1  330   4.026   7.402   8.925  0.0000  0.0000  0.0000
  331OM     OM1  331   4.114   7.159   8.887  0.0000  0.0000  0.0000
  332OM     OM1  332   4.050   8.987   0.071  0.0000  0.0000  0.0000
  333OM     OM1  333   4.081   8.835   0.283  0.0000  0.0000  0.0000
  334OM     OM1  334   4.201   8.782   0.047  0.0000  0.0000  0.0000
  335OM     OM1  335   4.277   8.985   0.194  0.0000  0.0000  0.0000
  336OM     OM1  336   0.183   4.704   9.372  0.0000  0.0000  0.0000
  337OM     OM1  337   0.029   4.798   9.554  0.0000  0.0000  0.0000
  338OM     OM1  338   0.024   4.782   9.044  0.0000  0.0000  0.0000
  339OM     OM1  339   0.080   4.950   9.346  0.0000  0.0000  0.0000
  340OM     OM1  340   8.753   2.714   9.384  0.0000  0.0000  0.0000
  341OM     OM1  341   8.912   2.897   9.280  0.0000  0.0000  0.0000
  342OM     OM1  342   9.011   2.685   9.382  0.0000  0.0000  0.0000
  343OM     OM1  343   8.883   2.651   9.162  0.0000  0.0000  0.0000
  344OM     OM1  344   0.052   7.166   9.156  0.0000  0.0000  0.0000
  345OM     OM1  345   0.072   7.054   8.919  0.0000  0.0000  0.0000
  346OM     OM1  346   9.529   7.263   8.951  0.0000  0.0000  0.0000
  347OM     OM1  347   0.189   7.281   8.960  0.0000  0.0000  0.0000
  348OM     OM1  348   4.227   2.120   8.336  0.0000  0.0000  0.0000
  349OM     OM1  349   4.280   1.944   8.519  0.0000  0.0000  0.0000
  350OM     OM1  350   4.426   1.959   8.313  0.0000  0.0000  0.0000
  351OM     OM1  351   4.664   1.967   8.424  0.0000  0.0000  0.0000
  352OM     OM1  352   7.338   3.139   0.703  0.0000  0.0000  0.0000
  353OM     OM1  353   7.206   3.336   0.582  0.0000  0.0000  0.0000
  354OM     OM1  354   7.408   3.394   0.728  0.0000  0.0000  0.0000
  355OM     OM1  355   7.449   3.255   0.506  0.0000  0.0000  0.0000
  356OM     OM1  356   9.117   0.694   1.174  0.0000  0.0000  0.0000
  357OM     OM1  357   9.370   0.648   1.265  0.0000  0.0000  0.0000
  358OM     OM1  358   9.328   0.618   1.019  0.0000  0.0000  0.0000
  359OM     OM1  359   9.202   0.462   1.183  0.0000  0.0000  0.0000
  360OM     OM1  360   4.166   5.054   0.260  0.0000  0.0000  0.0000
  361OM     OM1  361   4.417   5.143   0.271  0.0000  0.0000  0.0000
  362OM     OM1  362   4.346   4.980   0.082  0.0000  0.0000  0.0000
  363OM     OM1  363   4.259   5.229   0.091  0.0000  0.0000  0.0000
  364OM     OM1  364   8.231   8.459   0.799  0.0000  0.0000  0.0000
  365OM     OM1  365   8.412   8.582   0.934  0.0000  0.0000  0.0000
  366OM     OM1  366   8.255   8.728   0.780  0.0000  0.0000  0.0000
  367OM     OM1  367   8.421   8.578   0.668  0.0000  0.0000  0.0000
  368OM     OM1  368   5.497   4.634   8.592  0.0000  0.0000  0.0000
  369OM     OM1  369   5.572   4.408   8.492  0.0000  0.0000  0.0000
  370OM     OM1  370   5.312   4.465   8.513  0.0000  0.0000  0.0000
  371OM     OM1  371   8.915   7.695   8.571  0.0000  0.0000  0.0000
  372OM     OM1  372   9.087   7.514   8.509  0.0000  0.0000  0.0000
  373OM     OM1  373   9.154   7.685   8.685  0.0000  0.0000  0.0000
  374OM     OM1  374   9.324   7.490   8.397  0.0000  0.0000  0.0000
  375OM     OM1  375   4.600   8.953   8.755  0.0000  0.0000  0.0000
  376OM     OM1  376   4.695   8.708   8.692  0.0000  0.0000  0.0000
  377OM     OM1  377   4.318   8.889   8.518  0.0000  0.0000  0.0000
  378OM     OM1  378   4.448   8.748   8.695  0.0000  0.0000  0.0000
  379OM     OM1  379   1.308   6.287   0.119  0.0000  0.0000  0.0000
  380OM     OM1  380   1.368   6.538   0.062  0.0000  0.0000  0.0000
  381OM     OM1  381   1.297   6.441   0.312  0.0000  0.0000  0.0000
  382OM     OM1  382   1.527   6.394   0.206  0.0000  0.0000  0.0000
  383OM     OM1  383   9.034   2.996   1.146  0.0000  0.0000  0.0000
  384OM     OM1  384   9.124   2.810   0.980  0.0000  0.0000  0.0000
  385OM     OM1  385   9.020   3.024   0.885  0.0000  0.0000  0.0000
  386OM     OM1  386   9.252   3.037   0.998  0.0000  0.0000  0.0000
  387OM     OM1  387   8.043   7.722   0.105  0.0000  0.0000  0.0000
  388OM     OM1  388   8.280   7.816   0.057  0.0000  0.0000  0.0000
  389OM     OM1  389   8.086   7.987   0.055  0.0000  0.0000  0.0000
  390OM     OM1  390   8.107   7.809   9.469  0.0000  0.0000  0.0000
  391OM     OM1  391   0.539   9.503   9.428  0.0000  0.0000  0.0000
  392OM     OM1  392   0.573   9.504   9.162  0.0000  0.0000  0.0000
  393OM     OM1  393   0.337   9.439   9.269  0.0000  0.0000  0.0000
  394OM     OM1  394   0.532   9.282   9.294  0.0000  0.0000  0.0000
  395OM     OM1  395   7.506   2.344   1.253  0.0000  0.0000  0.0000
  396OM     OM1  396   7.585   2.573   1.154  0.0000  0.0000  0.0000
  397OM     OM1  397   3.855   8.862   9.019  0.0000  0.0000  0.0000
  398OM     OM1  398   3.979   8.984   9.290  0.0000  0.0000  0.0000
  399OM     OM1  399   4.102   8.829   8.997  0.0000  0.0000  0.0000
  400OM     OM1  400   3.958   8.743   9.215  0.0000  0.0000  0.0000
  401OM     OM1  401   8.653   0.894   0.112  0.0000  0.0000  0.0000
  402OM     OM1  402   8.699   1.120   0.233  0.0000  0.0000  0.0000
  403OM     OM1  403   8.894   0.946   0.249  0.0000  0.0000  0.0000
  404OM     OM1  404   8.844   1.026   0.020  0.0000  0.0000  0.0000
  405OM     OM1  405   9.594   4.316   0.142  0.0000  0.0000  0.0000
  406OM     OM1  406   9.485   4.079   0.111  0.0000  0.0000  0.0000
  407OM     OM1  407   0.377   4.066   0.192  0.0000  0.0000  0.0000
  408OM     OM1  408   0.121   4.116   0.223  0.0000  0.0000  0.0000
  409OM     OM1  409   6.371   9.075   0.065  0.0000  0.0000  0.0000
  410OM     OM1  410   6.348   9.324   0.145  0.0000  0.0000  0.0000
  411OM     OM1  411   6.253   9.246   9.522  0.0000  0.0000  0.0000
  412OM     OM1  412   6.144   9.173   0.155  0.0000  0.0000  0.0000
  413OM     OM1  413   6.672   4.479   8.636  0.0000  0.0000  0.0000
  414OM     OM1  414   6.683   4.215   8.619  0.0000  0.0000  0.0000
  415OM     OM1  415   6.899   4.348   8.586  0.0000  0.0000  0.0000
  416OM     OM1  416   6.732   4.367   8.403  0.0000  0.0000  0.0000
  417OM     OM1  417   0.241   0.114   1.188  0.0000  0.0000  0.0000
  418OM     OM1  418   0.218   0.379   1.242  0.0000  0.0000  0.0000
  419OM     OM1  419   0.449   0.254   1.185  0.0000  0.0000  0.0000
  420OM     OM1  420   5.111   9.124   0.351  0.0000  0.0000  0.0000
  421OM     OM1  421   5.196   9.290   0.177  0.0000  0.0000  0.0000
  422OM     OM1  422   4.939   9.271   0.210  0.0000  0.0000  0.0000
  423OM     OM1  423   5.059   9.067   0.101  0.0000  0.0000  0.0000
  424OM     OM1  424   9.064   6.344   9.466  0.0000  0.0000  0.0000
  425OM     OM1  425   8.984   6.108   9.536  0.0000  0.0000  0.0000
  426OM     OM1  426   8.871   6.226   9.333  0.0000  0.0000  0.0000
  427OM     OM1  427   2.040   0.158   9.300  0.0000  0.0000  0.0000
  428OM     OM1  428   1.881   0.246   9.488  0.0000  0.0000  0.0000
  429OM     OM1  429   1.859   0.003   9.404  0.0000  0.0000  0.0000
  430OM     OM1  430   1.797   0.205   9.240  0.0000  0.0000  0.0000
  431OM     OM1  431   5.093   4.113   8.931  0.0000  0.0000  0.0000
  432OM     OM1  432   5.170   4.068   9.172  0.0000  0.0000  0.0000
  433OM     OM1  433   5.134   4.310   9.101  0.0000  0.0000  0.0000
  434OM     OM1  434   4.927   4.150   9.126  0.0000  0.0000  0.0000
  435OM     OM1  435   8.476   7.817   8.577  0.0000  0.0000  0.0000
  436OM     OM1  436   8.571   7.709   8.791  0.0000  0.0000  0.0000
  437OM     OM1  437   8.745   7.524   8.853  0.0000  0.0000  0.0000
  438OM     OM1  438   8.813   7.770   8.882  0.0000  0.0000  0.0000
  439OM     OM1  439   5.272   8.416   1.231  0.0000  0.0000  0.0000
  440OM     OM1  440   5.024   8.414   1.320  0.0000  0.0000  0.0000
  441OM     OM1  441   1.530   6.691   8.265  0.0000  0.0000  0.0000
  442OM     OM1  442   1.781   6.686   8.327  0.0000  0.0000  0.0000
  443OM     OM1  443   1.595   6.579   8.497  0.0000  0.0000  0.0000
  444OM     OM1  444   1.611   6.834   8.457  0.0000  0.0000  0.0000
  445OM     OM1  445   9.038   1.891   9.374  0.0000  0.0000  0.0000
  446OM     OM1  446   9.247   2.050   9.373  0.0000  0.0000  0.0000
  447OM     OM1  447   9.273   1.789   9.428  0.0000  0.0000  0.0000
  448OM     OM1  448   9.155   1.952   9.596  0.0000  0.0000  0.0000
  449OM     OM1  449   8.203   2.455   8.307  0.0000  0.0000  0.0000
  450OM     OM1  450   8.088   2.212   8.280  0.0000  0.0000  0.0000
  451OM     OM1  451   7.243   5.350   0.422  0.0000  0.0000  0.0000
  452OM     OM1  452   7.043   5.226   0.306  0.0000  0.0000  0.0000
  453OM     OM1  453   6.991   5.439   0.435  0.0000  0.0000  0.0000
  454OM     OM1  454   7.128   5.447   0.208  0.0000  0.0000  0.0000
  455OM     OM1  455   2.227   8.066   0.938  0.0000  0.0000  0.0000
  456OM     OM1  456   2.021   8.184   0.849  0.0000  0.0000  0.0000
  457OM     OM1  457   2.211   8.332   0.945  0.0000  0.0000  0.0000
  458OM     OM1  458   2.068   8.203   1.105  0.0000  0.0000  0.0000
  459OM     OM1  459   8.117   4.362   1.282  0.0000  0.0000  0.0000
  460OM     OM1  460   8.268   4.565   1.380  0.0000  0.0000  0.0000
  461OM     OM1  461   4.856   3.289   9.202  0.0000  0.0000  0.0000
  462OM     OM1  462   4.601   3.291   9.255  0.0000  0.0000  0.0000
  463OM     OM1  463   4.725   3.071   9.188  0.0000  0.0000  0.0000
  464OM     OM1  464   4.673   3.270   9.013  0.0000  0.0000  0.0000
  465OM     OM1  465   5.763   5.910   0.386  0.0000  0.0000  0.0000
  466OM     OM1  466   5.727   6.092   0.191  0.0000  0.0000  0.0000
  467OM     OM1  467   5.686   6.132   0.454  0.0000  0.0000  0.0000
  468OM     OM1  468   5.928   6.113   0.348  0.0000  0.0000  0.0000
  469OM     OM1  469   8.911   6.664   8.493  0.0000  0.0000  0.0000
  470OM     OM1  470   9.025   6.786   8.693  0.0000  0.0000  0.0000
  471OM     OM1  471   8.803   6.890   8.578  0.0000  0.0000  0.0000
  472OM     OM1  472   8.797   6.674   8.726  0.0000  0.0000  0.0000
  473OM     OM1  473   2.313   3.862   8.383  0.0000  0.0000  0.0000
  474OM     OM1  474   2.242   3.621   8.417  0.0000  0.0000  0.0000
  475OM     OM1  475   0.525   3.438   9.516  0.0000  0.0000  0.0000
  476OM     OM1  476   0.740   3.457   0.053  0.0000  0.0000  0.0000
  477OM     OM1  477   0.663   3.224   9.575  0.0000  0.0000  0.0000
  478OM     OM1  478   0.752   3.397   9.399  0.0000  0.0000  0.0000
  479OM     OM1  479   7.765   1.383   1.007  0.0000  0.0000  0.0000
  480OM     OM1  480   7.419   1.421   1.105  0.0000  0.0000  0.0000
  481OM     OM1  481   7.639   0.999   1.038  0.0000  0.0000  0.0000
  482OM     OM1  482   7.754   1.188   1.173  0.0000  0.0000  0.0000
  483OM     OM1  483   2.015   5.361   0.090  0.0000  0.0000  0.0000
  484OM     OM1  484   2.005   5.131   0.214  0.0000  0.0000  0.0000
  485OM     OM1  485   1.795   5.209   0.089  0.0000  0.0000  0.0000
  486OM     OM1  486   1.868   5.337   0.311  0.0000  0.0000  0.0000
  487OM     OM1  487   5.137   7.479   9.190  0.0000  0.0000  0.0000
  488OM     OM1  488   5.028   7.715   9.215  0.0000  0.0000  0.0000
  489OM     OM1  489   5.289   7.688   9.244  0.0000  0.0000  0.0000
  490OM     OM1  490   5.179   7.675   9.013  0.0000  0.0000  0.0000
  491OM     OM1  491   6.658   3.791   8.311  0.0000  0.0000  0.0000
  492OM     OM1  492   6.626   3.699   8.547  0.0000  0.0000  0.0000
  493OM     OM1  493   6.666   3.966   8.513  0.0000  0.0000  0.0000
  494OM     OM1  494   6.854   3.787   8.502  0.0000  0.0000  0.0000
  495OM     OM1  495   0.458   1.220   8.979  0.0000  0.0000  0.0000
  496OM     OM1  496   0.150   0.942   9.011  0.0000  0.0000  0.0000
  497OM     OM1  497   0.408   0.968   8.965  0.0000  0.0000  0.0000
  498OM     OM1  498   0.309   0.733   9.026  0.0000  0.0000  0.0000
  499OM     OM1  499   8.129   1.214   1.136  0.0000  0.0000  0.0000
  500OM     OM1  500   3.494   9.447   8.971  0.0000  0.0000  0.0000
  501OM     OM1  501   3.533   9.514   9.222  0.0000  0.0000  0.0000
  502OM     OM1  502   3.630   9.297   9.124  0.0000  0.0000  0.0000
  503OM     OM1  503   3.726   9.543   9.054  0.0000  0.0000  0.0000
  504OM     OM1  504   6.442   5.606   9.366  0.0000  0.0000  0.0000
  505OM     OM1  505   6.394   5.622   9.114  0.0000  0.0000  0.0000
  506OM     OM1  506   6.371   5.392   9.233  0.0000  0.0000  0.0000
  507OM     OM1  507   6.207   5.607   9.287  0.0000  0.0000  0.0000
  508OM     OM1  508   9.536   3.042   0.123  0.0000  0.0000  0.0000
  509OM     OM1  509   9.466   2.864   0.306  0.0000  0.0000  0.0000
  510OM     OM1  510   9.343   3.103   0.287  0.0000  0.0000  0.0000
  511OM     OM1  511   9.311   2.924   0.102  0.0000  0.0000  0.0000
  512OM     OM1  512   0.830   6.803   8.265  0.0000  0.0000  0.0000
  513OM     OM1  513   0.776   6.816   8.533  0.0000  0.0000  0.0000
  514OM     OM1  514   0.730   6.610   8.395  0.0000  0.0000  0.0000
  515OM     OM1  515   3.148   5.116   1.081  0.0000  0.0000  0.0000
  516OM     OM1  516   2.955   5.291   1.102  0.0000  0.0000  0.0000
  517OM     OM1  517   2.915   5.029   1.140  0.0000  0.0000  0.0000
  518OM     OM1  518   5.587   5.133   1.195  0.0000  0.0000  0.0000
  519OM     OM1  519   5.731   5.009   1.369  0.0000  0.0000  0.0000
  520OM     OM1  520   5.561   4.871   1.215  0.0000  0.0000  0.0000
  521OM     OM1  521   6.458   7.678   1.233  0.0000  0.0000  0.0000
  522OM     OM1  522   6.328   7.667   1.010  0.0000  0.0000  0.0000
  523OM     OM1  523   6.611   7.865   1.308  0.0000  0.0000  0.0000
  524OM     OM1  524   6.204   7.753   1.210  0.0000  0.0000  0.0000
  525OM     OM1  525   7.460   8.519   0.554  0.0000  0.0000  0.0000
  526OM     OM1  526   7.513   8.284   0.638  0.0000  0.0000  0.0000
  527OM     OM1  527   7.571   8.341   0.388  0.0000  0.0000  0.0000
  528OM     OM1  528   7.720   8.435   0.570  0.0000  0.0000  0.0000
  529OM     OM1  529   1.184   4.233   9.305  0.0000  0.0000  0.0000
  530OM     OM1  530   1.159   3.982   9.256  0.0000  0.0000  0.0000
  531OM     OM1  531   0.968   4.102   9.401  0.0000  0.0000  0.0000
  532OM     OM1  532   0.998   4.153   9.150  0.0000  0.0000  0.0000
  533OM     OM1  533   3.933   9.577   9.201  0.0000  0.0000  0.0000
  534OM     OM1  534   3.955   9.506   8.952  0.0000  0.0000  0.0000
  535OM     OM1  535   3.906   0.141   8.989  0.0000  0.0000  0.0000
  536OM     OM1  536   3.474   6.351   1.059  0.0000  0.0000  0.0000
  537OM     OM1  537   3.505   6.612   1.030  0.0000  0.0000  0.0000
  538OM     OM1  538   3.712   6.459   1.017  0.0000  0.0000  0.0000
  539OM     OM1  539   1.575   8.690   8.858  0.0000  0.0000  0.0000
  540OM     OM1  540   1.330   8.606   8.881  0.0000  0.0000  0.0000
  541OM     OM1  541   1.459   8.707   9.086  0.0000  0.0000  0.0000
  542OM     OM1  542   1.383   8.864   8.884  0.0000  0.0000  0.0000
  543OM     OM1  543   5.557   3.463   0.180  0.0000  0.0000  0.0000
  544OM     OM1  544   5.746   3.281   0.144  0.0000  0.0000  0.0000
  545OM     OM1  545   5.804   3.510   0.246  0.0000  0.0000  0.0000
  546OM     OM1  546   8.809   6.342   9.112  0.0000  0.0000  0.0000
  547OM     OM1  547   8.619   6.289   9.286  0.0000  0.0000  0.0000
  548OM     OM1  548   7.974   3.984   0.575  0.0000  0.0000  0.0000
  549OM     OM1  549   7.945   4.206   0.712  0.0000  0.0000  0.0000
  550OM     OM1  550   7.822   3.998   0.797  0.0000  0.0000  0.0000
  551OM     OM1  551   7.747   4.126   0.585  0.0000  0.0000  0.0000
  552OM     OM1  552   5.103   6.192   9.553  0.0000  0.0000  0.0000
  553OM     OM1  553   4.944   6.402   9.572  0.0000  0.0000  0.0000
  554OM     OM1  554   5.091   6.378   9.360  0.0000  0.0000  0.0000
  555OM     OM1  555   4.868   6.561   0.176  0.0000  0.0000  0.0000
  556OM     OM1  556   8.482   8.423   1.138  0.0000  0.0000  0.0000
  557OM     OM1  557   8.440   8.169   1.143  0.0000  0.0000  0.0000
  558OM     OM1  558   8.674   8.269   1.213  0.0000  0.0000  0.0000
  559OM     OM1  559   6.797   1.297   8.484  0.0000  0.0000  0.0000
  560OM     OM1  560   6.760   1.037   8.423  0.0000  0.0000  0.0000
  561OM     OM1  561   6.968   1.122   8.563  0.0000  0.0000  0.0000
  562OM     OM1  562   2.863   2.494   8.888  0.0000  0.0000  0.0000
  563OM     OM1  563   2.696   2.409   8.722  0.0000  0.0000  0.0000
  564OM     OM1  564   2.863   2.235   8.827  0.0000  0.0000  0.0000
  565OM     OM1  565   2.675   2.333   8.977  0.0000  0.0000  0.0000
  566OM     OM1  566   6.211   6.817   8.532  0.0000  0.0000  0.0000
  567OM     OM1  567   6.343   6.953   8.711  0.0000  0.0000  0.0000
  568OM     OM1  568   6.335   7.049   8.471  0.0000  0.0000  0.0000
  569OM     OM1  569   6.467   6.829   8.513  0.0000  0.0000  0.0000
  570OM     OM1  570   9.144   7.905   0.573  0.0000  0.0000  0.0000
  571OM     OM1  571   9.391   7.996   0.568  0.0000  0.0000  0.0000
  572OM     OM1  572   9.183   8.142   0.657  0.0000  0.0000  0.0000
  573OM     OM1  573   9.226   8.082   0.400  0.0000  0.0000  0.0000
  574OM     OM1  574   7.133   3.974   0.245  0.0000  0.0000  0.0000
  575OM     OM1  575   7.367   4.061   0.181  0.0000  0.0000  0.0000
  576OM     OM1  576   7.330   3.796   0.218  0.0000  0.0000  0.0000
  577OM     OM1  577   7.342   3.949   0.415  0.0000  0.0000  0.0000
  578OM     OM1  578   1.100   4.973   1.098  0.0000  0.0000  0.0000
  579OM     OM1  579   1.087   5.202   1.213  0.0000  0.0000  0.0000
  580OM     OM1  580   0.384   7.382   8.775  0.0000  0.0000  0.0000
  581OM     OM1  581   0.159   7.311   8.711  0.0000  0.0000  0.0000
  582OM     OM1  582   0.199   7.524   8.882  0.0000  0.0000  0.0000
  583OM     OM1  583   6.072   9.107   8.363  0.0000  0.0000  0.0000
  584OM     OM1  584   5.882   9.270   8.442  0.0000  0.0000  0.0000
  585OM     OM1  585   8.055   5.841   9.222  0.0000  0.0000  0.0000
  586OM     OM1  586   8.185   5.647   9.128  0.0000  0.0000  0.0000
  587OM     OM1  587   8.257   5.892   9.064  0.0000  0.0000  0.0000
  588OM     OM1  588   8.052   5.778   8.953  0.0000  0.0000  0.0000
  589OM     OM1  589   1.715   9.357   0.006  0.0000  0.0000  0.0000
  590OM     OM1  590   1.495   9.237   0.037  0.0000  0.0000  0.0000
  591OM     OM1  591   1.552   9.463   0.173  0.0000  0.0000  0.0000
  592OM     OM1  592   1.485   9.475   9.530  0.0000  0.0000  0.0000
  593OM     OM1  593   2.275   5.611   9.167  0.0000  0.0000  0.0000
  594OM     OM1  594   2.519   5.628   9.246  0.0000  0.0000  0.0000
  595OM     OM1  595   2.432   5.797   9.065  0.0000  0.0000  0.0000
  596OM     OM1  596   2.357   5.822   9.304  0.0000  0.0000  0.0000
  597OM     OM1  597   9.042   5.126   1.049  0.0000  0.0000  0.0000
  598OM     OM1  598   9.093   5.056   1.293  0.0000  0.0000  0.0000
  599OM     OM1  599   9.228   4.950   1.098  0.0000  0.0000  0.0000
  600OM     OM1  600   8.983   4.873   1.135  0.0000  0.0000  0.0000
  601OM     OM1  601   3.508   0.286   1.343  0.0000  0.0000  0.0000
  602OM     OM1  602   3.681   0.260   1.150  0.0000  0.0000  0.0000
  603OM     OM1  603   3.738   0.388   1.366  0.0000  0.0000  0.0000
  604OM     OM1  604   7.614   0.006   9.054  0.0000  0.0000  0.0000
  605OM     OM1  605   7.639   0.270   9.115  0.0000  0.0000  0.0000
  606OM     OM1  606   7.831   0.115   9.153  0.0000  0.0000  0.0000
  607OM     OM1  607   7.609   0.080   9.298  0.0000  0.0000  0.0000
  608OM     OM1  608   7.926   0.118   8.909  0.0000  0.0000  0.0000
  609OM     OM1  609   8.077   0.051   9.115  0.0000  0.0000  0.0000
  610OM     OM1  610   8.015   0.293   9.081  0.0000  0.0000  0.0000
  611OM     OM1  611   6.188   3.234   0.789  0.0000  0.0000  0.0000
  612OM     OM1  612   6.048   3.247   1.014  0.0000  0.0000  0.0000
  613OM     OM1  613   5.966   3.391   0.815  0.0000  0.0000  0.0000
  614OM     OM1  614   5.958   3.123   0.802  0.0000  0.0000  0.0000
  615OM     OM1  615   1.646   2.426   9.311  0.0000  0.0000  0.0000
  616OM     OM1  616   1.678   2.310   9.556  0.0000  0.0000  0.0000
  617OM     OM1  617   1.511   2.509   9.522  0.0000  0.0000  0.0000
  618OM     OM1  618   1.773   2.542   9.502  0.0000  0.0000  0.0000
  619OM     OM1  619   6.797   1.334   1.260  0.0000  0.0000  0.0000
  620OM     OM1  620   6.604   1.495   1.322  0.0000  0.0000  0.0000
  621OM     OM1  621   6.775   1.564   1.131  0.0000  0.0000  0.0000
  622OM     OM1  622   0.138   7.047   0.307  0.0000  0.0000  0.0000
  623OM     OM1  623   9.522   6.975   0.170  0.0000  0.0000  0.0000
  624OM     OM1  624   9.572   6.869   0.401  0.0000  0.0000  0.0000
  625OM     OM1  625   0.117   6.815   0.189  0.0000  0.0000  0.0000
  626OM     OM1  626   4.524   9.196   8.854  0.0000  0.0000  0.0000
  627OM     OM1  627   4.654   9.029   8.989  0.0000  0.0000  0.0000
  628OM     OM1  628   4.789   9.124   8.790  0.0000  0.0000  0.0000
  629OM     OM1  629   8.476   7.716   9.523  0.0000  0.0000  0.0000
  630OM     OM1  630   8.498   7.737   9.254  0.0000  0.0000  0.0000
  631OM     OM1  631   8.406   7.529   9.363  0.0000  0.0000  0.0000
  632OM     OM1  632   4.801   0.008   9.081  0.0000  0.0000  0.0000
  633OM     OM1  633   4.855   0.274   9.074  0.0000  0.0000  0.0000
  634OM     OM1  634   4.998   0.111   9.208  0.0000  0.0000  0.0000
  635OM     OM1  635   4.756   0.157   9.289  0.0000  0.0000  0.0000
  636OM     OM1  636   8.710   6.556   0.057  0.0000  0.0000  0.0000
  637OM     OM1  637   8.890   6.745   0.086  0.0000  0.0000  0.0000
  638OM     OM1  638   8.962   6.493   0.056  0.0000  0.0000  0.0000
  639OM     OM1  639   8.849   6.578   0.280  0.0000  0.0000  0.0000
  640OM     OM1  640   0.406   0.713   0.172  0.0000  0.0000  0.0000
  641OM     OM1  641   0.512   0.477   0.192  0.0000  0.0000  0.0000
  642OM     OM1  642   0.328   0.507   0.016  0.0000  0.0000  0.0000
  643OM     OM1  643   0.561   0.625   9.584  0.0000  0.0000  0.0000
  644OM     OM1  644   8.863   2.071   9.433  0.0000  0.0000  0.0000
  645OM     OM1  645   8.883   1.989   9.190  0.0000  0.0000  0.0000
  646OM     OM1  646   8.776   1.832   9.372  0.0000  0.0000  0.0000
  647OM     OM1  647   7.809   7.710   0.402  0.0000  0.0000  0.0000
  648OM     OM1  648   7.639   7.814   0.232  0.0000  0.0000  0.0000
  649OM     OM1  649   7.578   7.673   0.456  0.0000  0.0000  0.0000
  650OM     OM1  650   7.664   7.558   0.235  0.0000  0.0000  0.0000
  651OM     OM1  651   9.454   0.749   8.514  0.0000  0.0000  0.0000
  652OM     OM1  652   0.057   0.706   8.371  0.0000  0.0000  0.0000
  653OM     OM1  653   0.081   0.838   8.596  0.0000  0.0000  0.0000
  654OM     OM1  654   9.556   0.945   8.395  0.0000  0.0000  0.0000
  655OM     OM1  655   8.437   7.631   0.159  0.0000  0.0000  0.0000
  656OM     OM1  656   8.540   7.864   0.120  0.0000  0.0000  0.0000
  657OM     OM1  657   8.519   1.612   0.138  0.0000  0.0000  0.0000
  658OM     OM1  658   8.265   1.639   0.201  0.0000  0.0000  0.0000
  659OM     OM1  659   8.346   1.442   0.050  0.0000  0.0000  0.0000
  660OM     OM1  660   8.070   1.558   0.361  0.0000  0.0000  0.0000
  661OM     OM1  661   0.312   8.846   0.740  0.0000  0.0000  0.0000
  662OM     OM1  662   0.090   8.918   0.638  0.0000  0.0000  0.0000
  663OM     OM1  663   0.081   9.164   0.570  0.0000  0.0000  0.0000
  664OM     OM1  664   0.266   8.798   0.483  0.0000  0.0000  0.0000
  665OM     OM1  665   9.581   1.253   0.351  0.0000  0.0000  0.0000
  666OM     OM1  666   9.487   1.069   0.513  0.0000  0.0000  0.0000
  667OM     OM1  667   0.126   1.429   0.478  0.0000  0.0000  0.0000
  668OM     OM1  668   0.212   1.335   0.255  0.0000  0.0000  0.0000
  669OM     OM1  669   0.424   5.300   8.488  0.0000  0.0000  0.0000
  670OM     OM1  670   0.638   5.147   8.474  0.0000  0.0000  0.0000
  671OM     OM1  671   5.621   4.250   9.153  0.0000  0.0000  0.0000
  672OM     OM1  672   5.662   4.022   9.041  0.0000  0.0000  0.0000
  673OM     OM1  673   5.828   4.234   9.321  0.0000  0.0000  0.0000
  674OM     OM1  674   5.423   4.090   9.101  0.0000  0.0000  0.0000
  675OM     OM1  675   0.515   4.238   1.287  0.0000  0.0000  0.0000
  676OM     OM1  676   0.735   4.168   1.418  0.0000  0.0000  0.0000
  677OM     OM1  677   0.570   3.994   1.315  0.0000  0.0000  0.0000
  678OM     OM1  678   3.410   3.698   0.069  0.0000  0.0000  0.0000
  679OM     OM1  679   3.318   3.461   0.015  0.0000  0.0000  0.0000
  680OM     OM1  680   3.306   3.632   9.431  0.0000  0.0000  0.0000
  681OM     OM1  681   3.383   3.938   0.146  0.0000  0.0000  0.0000
  682OM     OM1  682   8.945   5.656   9.150  0.0000  0.0000  0.0000
  683OM     OM1  683   9.138   5.841   8.882  0.0000  0.0000  0.0000
  684OM     OM1  684   9.162   5.498   9.152  0.0000  0.0000  0.0000
  685OM     OM1  685   9.063   5.595   8.930  0.0000  0.0000  0.0000
  686OM     OM1  686   7.510   2.220   8.573  0.0000  0.0000  0.0000
  687OM     OM1  687   7.351   2.015   8.592  0.0000  0.0000  0.0000
  688OM     OM1  688   7.329   2.201   8.760  0.0000  0.0000  0.0000
  689OM     OM1  689   7.550   2.060   8.771  0.0000  0.0000  0.0000
  690OM     OM1  690   8.540   0.726   9.540  0.0000  0.0000  0.0000
  691OM     OM1  691   8.422   0.836   0.327  0.0000  0.0000  0.0000
  692OM     OM1  692   8.396   0.886   0.076  0.0000  0.0000  0.0000
  693OM     OM1  693   0.443   4.189   8.777  0.0000  0.0000  0.0000
  694OM     OM1  694   0.632   4.343   8.688  0.0000  0.0000  0.0000
  695OM     OM1  695   0.383   4.382   8.603  0.0000  0.0000  0.0000
  696OM     OM1  696   0.517   4.163   8.538  0.0000  0.0000  0.0000
  697OM     OM1  697   2.827   6.880   8.694  0.0000  0.0000  0.0000
  698OM     OM1  698   2.596   6.951   8.620  0.0000  0.0000  0.0000
  699OM     OM1  699   2.722   7.072   8.822  0.0000  0.0000  0.0000
  700OM     OM1  700   2.614   6.832   8.850  0.0000  0.0000  0.0000
  701OM     OM1  701   5.881   0.412   0.705  0.0000  0.0000  0.0000
  702OM     OM1  702   6.112   0.392   0.809  0.0000  0.0000  0.0000
  703OM     OM1  703   6.051   0.248   0.591  0.0000  0.0000  0.0000
  704OM     OM1  704   3.341   4.532   0.115  0.0000  0.0000  0.0000
  705OM     OM1  705   3.408   4.530   0.377  0.0000  0.0000  0.0000
  706OM     OM1  706   3.527   4.377   0.197  0.0000  0.0000  0.0000
  707OM     OM1  707   3.281   4.336   0.282  0.0000  0.0000  0.0000
  708OM     OM1  708   8.140   8.958   1.189  0.0000  0.0000  0.0000
  709OM     OM1  709   8.211   8.927   0.936  0.0000  0.0000  0.0000
  710OM     OM1  710   8.210   9.157   1.047  0.0000  0.0000  0.0000
  711OM     OM1  711   7.984   9.037   0.993  0.0000  0.0000  0.0000
  712OM     OM1  712   9.007   3.405   0.479  0.0000  0.0000  0.0000
  713OM     OM1  713   8.979   3.365   0.222  0.0000  0.0000  0.0000
  714OM     OM1  714   9.051   3.172   0.382  0.0000  0.0000  0.0000
  715OM     OM1  715   8.824   3.086   0.442  0.0000  0.0000  0.0000
  716OM     OM1  716   3.537   0.346   0.952  0.0000  0.0000  0.0000
  717OM     OM1  717   3.706   0.503   1.048  0.0000  0.0000  0.0000
  718OM     OM1  718   3.602   0.744   1.055  0.0000  0.0000  0.0000
  719OM     OM1  719   3.662   0.669   8.498  0.0000  0.0000  0.0000
  720OM     OM1  720   3.460   0.552   8.373  0.0000  0.0000  0.0000
  721OM     OM1  721   3.707   0.475   8.332  0.0000  0.0000  0.0000
  722OM     OM1  722   0.197   8.078   1.242  0.0000  0.0000  0.0000
  723OM     OM1  723   9.556   8.479   1.076  0.0000  0.0000  0.0000
  724OM     OM1  724   0.053   8.258   1.145  0.0000  0.0000  0.0000
  725OM     OM1  725   3.345   6.708   0.746  0.0000  0.0000  0.0000
  726OM     OM1  726   3.540   6.856   0.690  0.0000  0.0000  0.0000
  727OM     OM1  727   3.455   6.852   0.938  0.0000  0.0000  0.0000
  728OM     OM1  728   3.293   6.955   0.762  0.0000  0.0000  0.0000
  729OM     OM1  729   2.681   3.603   8.633  0.0000  0.0000  0.0000
  730OM     OM1  730   2.557   3.390   8.735  0.0000  0.0000  0.0000
  731OM     OM1  731   2.527   3.630   8.832  0.0000  0.0000  0.0000
  732OM     OM1  732   2.743   3.505   8.881  0.0000  0.0000  0.0000
  733OM     OM1  733   2.155   5.967   8.920  0.0000  0.0000  0.0000
  734OM     OM1  734   1.938   5.975   9.063  0.0000  0.0000  0.0000
  735OM     OM1  735   2.039   5.747   8.976  0.0000  0.0000  0.0000
  736OM     OM1  736   2.147   5.884   9.177  0.0000  0.0000  0.0000
  737OM     OM1  737   4.058   3.643   9.502  0.0000  0.0000  0.0000
  738OM     OM1  738   4.273   3.502   9.525  0.0000  0.0000  0.0000
  739OM     OM1  739   4.294   3.758   9.555  0.0000  0.0000  0.0000
  740OM     OM1  740   4.172   3.607   0.129  0.0000  0.0000  0.0000
  741OM     OM1  741   9.274   8.884   8.474  0.0000  0.0000  0.0000
  742OM     OM1  742   9.306   9.145   8.465  0.0000  0.0000  0.0000
  743OM     OM1  743   9.444   9.005   8.639  0.0000  0.0000  0.0000
  744OM     OM1  744   9.499   9.003   8.385  0.0000  0.0000  0.0000
  745OM     OM1  745   5.153   1.032   0.473  0.0000  0.0000  0.0000
  746OM     OM1  746   5.375   0.975   0.615  0.0000  0.0000  0.0000
  747OM     OM1  747   5.212   0.788   0.527  0.0000  0.0000  0.0000
  748OM     OM1  748   5.137   0.938   0.722  0.0000  0.0000  0.0000
  749OM     OM1  749   3.285   9.297   0.617  0.0000  0.0000  0.0000
  750OM     OM1  750   3.534   9.211   0.608  0.0000  0.0000  0.0000
  751OM     OM1  751   3.488   9.394   0.782  0.0000  0.0000  0.0000
  752OM     OM1  752   3.372   9.166   0.816  0.0000  0.0000  0.0000
  753OM     OM1  753   7.113   8.039   9.348  0.0000  0.0000  0.0000
  754OM     OM1  754   6.866   8.071   9.429  0.0000  0.0000  0.0000
  755OM     OM1  755   7.061   8.103   9.589  0.0000  0.0000  0.0000
  756OM     OM1  756   7.016   8.286   9.390  0.0000  0.0000  0.0000
  757OM     OM1  757   8.978   5.168   9.131  0.0000  0.0000  0.0000
  758OM     OM1  758   8.957   5.224   8.882  0.0000  0.0000  0.0000
  759OM     OM1  759   8.746   5.226   9.021  0.0000  0.0000  0.0000
  760OM     OM1  760   8.932   5.413   9.063  0.0000  0.0000  0.0000
  761OM     OM1  761   3.460   5.500   9.380  0.0000  0.0000  0.0000
  762OM     OM1  762   3.274   5.336   9.440  0.0000  0.0000  0.0000
  763OM     OM1  763   3.444   5.283   9.243  0.0000  0.0000  0.0000
  764OM     OM1  764   3.535   5.275   9.485  0.0000  0.0000  0.0000
  765OM     OM1  765   1.706   7.766   9.603  0.0000  0.0000  0.0000
  766OM     OM1  766   1.598   7.842   9.373  0.0000  0.0000  0.0000
  767OM     OM1  767   1.467   7.701   9.552  0.0000  0.0000  0.0000
  768OM     OM1  768   1.505   7.950   9.590  0.0000  0.0000  0.0000
  769OM     OM1  769   0.147   4.452   8.688  0.0000  0.0000  0.0000
  770OM     OM1  770   0.122   4.570   8.916  0.0000  0.0000  0.0000
  771OM     OM1  771   9.517   4.484   8.814  0.0000  0.0000  0.0000
  772OM     OM1  772   0.080   4.296   8.879  0.0000  0.0000  0.0000
  773OM     OM1  773   1.079   3.158   8.573  0.0000  0.0000  0.0000
  774OM     OM1  774   1.105   2.933   8.444  0.0000  0.0000  0.0000
  775OM     OM1  775   0.958   3.121   8.344  0.0000  0.0000  0.0000
  776OM     OM1  776   4.509   5.015   9.493  0.0000  0.0000  0.0000
  777OM     OM1  777   4.339   4.812   9.483  0.0000  0.0000  0.0000
  778OM     OM1  778   4.086   4.788   9.432  0.0000  0.0000  0.0000
  779OM     OM1  779   1.760   1.211   1.254  0.0000  0.0000  0.0000
  780OM     OM1  780   1.635   1.250   1.033  0.0000  0.0000  0.0000
  781OM     OM1  781   1.889   1.279   1.042  0.0000  0.0000  0.0000
  782OM     OM1  782   1.790   1.035   1.057  0.0000  0.0000  0.0000
  783OM     OM1  783   3.609   9.426   8.375  0.0000  0.0000  0.0000
  784OM     OM1  784   3.432   9.571   8.496  0.0000  0.0000  0.0000
  785OM     OM1  785   3.382   9.310   8.442  0.0000  0.0000  0.0000
  786OM     OM1  786   8.430   8.241   0.061  0.0000  0.0000  0.0000
  787OM     OM1  787   8.224   8.363   9.573  0.0000  0.0000  0.0000
  788OM     OM1  788   8.452   8.377   9.451  0.0000  0.0000  0.0000
  789OM     OM1  789   8.320   8.152   9.441  0.0000  0.0000  0.0000
  790OM     OM1  790   9.430   4.850   8.538  0.0000  0.0000  0.0000
  791OM     OM1  791   9.415   4.605   8.478  0.0000  0.0000  0.0000
  792OM     OM1  792   9.226   4.765   8.392  0.0000  0.0000  0.0000
  793OM     OM1  793   6.554   3.861   1.222  0.0000  0.0000  0.0000
  794OM     OM1  794   9.373   5.122   0.973  0.0000  0.0000  0.0000
  795OM     OM1  795   9.429   4.871   0.943  0.0000  0.0000  0.0000
  796OM     OM1  796   9.467   4.991   1.180  0.0000  0.0000  0.0000
  797OM     OM1  797   6.412   5.113   1.071  0.0000  0.0000  0.0000
  798OM     OM1  798   6.190   5.010   1.171  0.0000  0.0000  0.0000
  799OM     OM1  799   6.424   4.911   1.230  0.0000  0.0000  0.0000
  800OM     OM1  800   3.304   5.721   1.220  0.0000  0.0000  0.0000
  801OM     OM1  801   3.087   5.703   1.363  0.0000  0.0000  0.0000
  802OM     OM1  802   4.358   2.745   0.628  0.0000  0.0000  0.0000
  803OM     OM1  803   4.149   2.746   0.780  0.0000  0.0000  0.0000
  804OM     OM1  804   4.378   2.842   0.872  0.0000  0.0000  0.0000
  805OM     OM1  805   4.248   2.975   0.705  0.0000  0.0000  0.0000
  806OM     OM1  806   1.102   3.513   0.184  0.0000  0.0000  0.0000
  807OM     OM1  807   1.294   3.420   0.057  0.0000  0.0000  0.0000
  808OM     OM1  808   1.136   3.594   9.545  0.0000  0.0000  0.0000
  809OM     OM1  809   1.275   3.710   0.200  0.0000  0.0000  0.0000
  810OM     OM1  810   6.938   0.796   9.426  0.0000  0.0000  0.0000
  811OM     OM1  811   6.746   0.609   9.414  0.0000  0.0000  0.0000
  812OM     OM1  812   6.948   0.565   9.568  0.0000  0.0000  0.0000
  813OM     OM1  813   6.792   0.746   0.025  0.0000  0.0000  0.0000
  814OM     OM1  814   8.440   4.017   1.190  0.0000  0.0000  0.0000
  815OM     OM1  815   8.510   4.252   1.167  0.0000  0.0000  0.0000
  816OM     OM1  816   8.427   4.124   0.950  0.0000  0.0000  0.0000
  817OM     OM1  817   8.254   4.199   1.132  0.0000  0.0000  0.0000
  818OM     OM1  818   4.484   0.881   0.373  0.0000  0.0000  0.0000
  819OM     OM1  819   4.562   0.798   0.612  0.0000  0.0000  0.0000
  820OM     OM1  820   4.348   0.684   0.518  0.0000  0.0000  0.0000
  821OM     OM1  821   4.578   0.644   0.406  0.0000  0.0000  0.0000
  822OM     OM1  822   8.852   1.018   9.363  0.0000  0.0000  0.0000
  823OM     OM1  823   9.031   1.158   9.524  0.0000  0.0000  0.0000
  824OM     OM1  824   9.042   0.901   9.483  0.0000  0.0000  0.0000
  825OM     OM1  825   9.440   1.915   0.831  0.0000  0.0000  0.0000
  826OM     OM1  826   0.094   1.850   0.808  0.0000  0.0000  0.0000
  827OM     OM1  827   9.290   1.977   1.033  0.0000  0.0000  0.0000
  828OM     OM1  828   9.366   1.738   0.998  0.0000  0.0000  0.0000
  829OM     OM1  829   7.114   1.940   0.064  0.0000  0.0000  0.0000
  830OM     OM1  830   6.993   1.832   9.451  0.0000  0.0000  0.0000
  831OM     OM1  831   7.179   1.712   9.567  0.0000  0.0000  0.0000
  832OM     OM1  832   6.939   1.741   0.079  0.0000  0.0000  0.0000
  833OM     OM1  833   0.960   8.333   8.763  0.0000  0.0000  0.0000
  834OM     OM1  834   1.044   8.160   8.935  0.0000  0.0000  0.0000
  835OM     OM1  835   1.185   8.381   8.885  0.0000  0.0000  0.0000
  836OM     OM1  836   0.951   8.384   9.018  0.0000  0.0000  0.0000
  837OM     OM1  837   1.097   1.499   1.280  0.0000  0.0000  0.0000
  838OM     OM1  838   1.042   1.744   1.242  0.0000  0.0000  0.0000
  839OM     OM1  839   0.904   1.552   1.108  0.0000  0.0000  0.0000
  840OM     OM1  840   3.158   9.262   1.394  0.0000  0.0000  0.0000
  841OM     OM1  841   6.310   0.610   0.045  0.0000  0.0000  0.0000
  842OM     OM1  842   6.362   0.807   0.225  0.0000  0.0000  0.0000
  843OM     OM1  843   6.550   0.701   0.102  0.0000  0.0000  0.0000
  844OM     OM1  844   6.412   0.555   0.278  0.0000  0.0000  0.0000
  845OM     OM1  845   2.488   8.534   8.261  0.0000  0.0000  0.0000
  846OM     OM1  846   1.895   0.401   9.095  0.0000  0.0000  0.0000
  847OM     OM1  847   1.737   0.232   8.976  0.0000  0.0000  0.0000
  848OM     OM1  848   1.643   0.398   9.148  0.0000  0.0000  0.0000
  849OM     OM1  849   3.588   3.791   0.246  0.0000  0.0000  0.0000
  850OM     OM1  850   3.540   3.558   9.506  0.0000  0.0000  0.0000
  851OM     OM1  851   3.581   3.874   9.599  0.0000  0.0000  0.0000
  852OM     OM1  852   7.212   4.606   8.628  0.0000  0.0000  0.0000
  853OM     OM1  853   7.290   4.434   8.450  0.0000  0.0000  0.0000
  854OM     OM1  854   7.447   4.640   8.538  0.0000  0.0000  0.0000
  855OM     OM1  855   7.413   4.436   8.681  0.0000  0.0000  0.0000
  856OM     OM1  856   6.934   8.927   0.805  0.0000  0.0000  0.0000
  857OM     OM1  857   6.967   9.043   1.044  0.0000  0.0000  0.0000
  858OM     OM1  858   7.158   9.036   0.874  0.0000  0.0000  0.0000
  859OM     OM1  859   6.948   9.184   0.826  0.0000  0.0000  0.0000
  860OM     OM1  860   6.139   6.658   0.031  0.0000  0.0000  0.0000
  861OM     OM1  861   5.886   6.665   0.056  0.0000  0.0000  0.0000
  862OM     OM1  862   6.006   6.868   9.562  0.0000  0.0000  0.0000
  863OM     OM1  863   5.988   6.638   9.423  0.0000  0.0000  0.0000
  864OM     OM1  864   1.233   3.253   1.180  0.0000  0.0000  0.0000
  865OM     OM1  865   1.111   3.087   1.022  0.0000  0.0000  0.0000
  866OM     OM1  866   1.318   3.069   0.868  0.0000  0.0000  0.0000
  867OM     OM1  867   1.275   3.011   1.209  0.0000  0.0000  0.0000
  868OM     OM1  868   9.597   8.726   1.154  0.0000  0.0000  0.0000
  869OM     OM1  869   0.177   8.554   1.172  0.0000  0.0000  0.0000
  870OM     OM1  870   0.103   8.630   0.931  0.0000  0.0000  0.0000
  871OM     OM1  871   7.273   9.247   0.772  0.0000  0.0000  0.0000
  872OM     OM1  872   7.182   9.505   0.785  0.0000  0.0000  0.0000
  873OM     OM1  873   7.436   9.445   0.743  0.0000  0.0000  0.0000
  874OM     OM1  874   7.243   9.397   0.569  0.0000  0.0000  0.0000
  875OM     OM1  875   4.853   8.540   0.236  0.0000  0.0000  0.0000
  876OM     OM1  876   4.655   8.687   0.146  0.0000  0.0000  0.0000
  877OM     OM1  877   4.602   8.461   0.257  0.0000  0.0000  0.0000
  878OM     OM1  878   4.705   8.644   0.410  0.0000  0.0000  0.0000
  879OM     OM1  879   2.378   0.905   0.140  0.0000  0.0000  0.0000
  880OM     OM1  880   2.184   0.891   0.323  0.0000  0.0000  0.0000
  881OM     OM1  881   2.415   0.794   0.379  0.0000  0.0000  0.0000
  882OM     OM1  882   2.264   0.681   0.190  0.0000  0.0000  0.0000
  883OM     OM1  883   2.137   8.702   8.837  0.0000  0.0000  0.0000
  884OM     OM1  884   2.024   8.929   8.914  0.0000  0.0000  0.0000
  885OM     OM1  885   2.165   8.896   8.688  0.0000  0.0000  0.0000
  886OM     OM1  886   2.277   8.908   8.937  0.0000  0.0000  0.0000
  887OM     OM1  887   7.054   8.030   1.211  0.0000  0.0000  0.0000
  888OM     OM1  888   6.938   7.840   1.075  0.0000  0.0000  0.0000
  889OM     OM1  889   6.812   8.004   1.261  0.0000  0.0000  0.0000
  890OM     OM1  890   5.991   2.802   0.154  0.0000  0.0000  0.0000
  891OM     OM1  891   6.039   2.689   9.529  0.0000  0.0000  0.0000
  892OM     OM1  892   6.205   2.646   0.111  0.0000  0.0000  0.0000
  893OM     OM1  893   5.975   2.540   0.137  0.0000  0.0000  0.0000
  894OM     OM1  894   5.466   5.718   8.663  0.0000  0.0000  0.0000
  895OM     OM1  895   5.308   5.503   8.400  0.0000  0.0000  0.0000
  896OM     OM1  896   5.597   5.926   8.588  0.0000  0.0000  0.0000
  897OM     OM1  897   5.508   5.354   8.498  0.0000  0.0000  0.0000
  898OM     OM1  898   2.601   8.231   9.201  0.0000  0.0000  0.0000
  899OM     OM1  899   2.427   8.179   8.996  0.0000  0.0000  0.0000
  900OM     OM1  900   2.592   8.000   9.073  0.0000  0.0000  0.0000
  901OM     OM1  901   2.394   8.080   9.226  0.0000  0.0000  0.0000
  902OM     OM1  902   0.068   8.769   8.836  0.0000  0.0000  0.0000
  903OM     OM1  903   0.175   8.739   8.611  0.0000  0.0000  0.0000
  904OM     OM1  904   0.325   8.813   8.811  0.0000  0.0000  0.0000
  905OM     OM1  905   0.238   8.572   8.823  0.0000  0.0000  0.0000
  906OM     OM1  906   0.373   7.606   8.636  0.0000  0.0000  0.0000
  907OM     OM1  907   0.661   7.906   8.909  0.0000  0.0000  0.0000
  908OM     OM1  908   0.773   7.839   8.689  0.0000  0.0000  0.0000
  909OM     OM1  909   0.519   7.804   8.690  0.0000  0.0000  0.0000
  910OM     OM1  910   6.602   6.587   0.553  0.0000  0.0000  0.0000
  911OM     OM1  911   6.728   6.801   0.608  0.0000  0.0000  0.0000
  912OM     OM1  912   6.663   6.762   0.368  0.0000  0.0000  0.0000
  913OM     OM1  913   6.470   6.808   0.562  0.0000  0.0000  0.0000
  914OM     OM1  914   7.436   3.376   8.632  0.0000  0.0000  0.0000
  915OM     OM1  915   7.491   3.471   8.871  0.0000  0.0000  0.0000
  916OM     OM1  916   7.554   3.595   8.665  0.0000  0.0000  0.0000
  917OM     OM1  917   7.284   3.560   8.718  0.0000  0.0000  0.0000
  918OM     OM1  918   4.804   7.775   9.095  0.0000  0.0000  0.0000
  919OM     OM1  919   4.910   7.965   9.229  0.0000  0.0000  0.0000
  920OM     OM1  920   4.827   7.762   9.365  0.0000  0.0000  0.0000
  921OM     OM1  921   2.696   0.114   9.374  0.0000  0.0000  0.0000
  922OM     OM1  922   2.778   0.254   9.185  0.0000  0.0000  0.0000
  923OM     OM1  923   2.848   9.595   9.193  0.0000  0.0000  0.0000
  924OM     OM1  924   2.612   0.065   9.130  0.0000  0.0000  0.0000
  925OM     OM1  925   2.342   5.785   0.497  0.0000  0.0000  0.0000
  926OM     OM1  926   2.391   5.878   0.743  0.0000  0.0000  0.0000
  927OM     OM1  927   2.553   5.941   0.545  0.0000  0.0000  0.0000
  928OM     OM1  928   2.302   6.031   0.559  0.0000  0.0000  0.0000
  929OM     OM1  929   6.182   1.761   0.136  0.0000  0.0000  0.0000
  930OM     OM1  930   6.313   1.563   0.021  0.0000  0.0000  0.0000
  931OM     OM1  931   6.255   1.540   0.263  0.0000  0.0000  0.0000
  932OM     OM1  932   6.054   1.536   0.091  0.0000  0.0000  0.0000
  933OM     OM1  933   2.263   7.977   8.982  0.0000  0.0000  0.0000
  934OM     OM1  934   2.018   7.925   9.034  0.0000  0.0000  0.0000
  935OM     OM1  935   2.136   7.822   8.815  0.0000  0.0000  0.0000
  936OM     OM1  936   2.192   7.731   9.055  0.0000  0.0000  0.0000
  937OM     OM1  937   3.218   1.159   1.158  0.0000  0.0000  0.0000
  938OM     OM1  938   3.252   1.419   1.191  0.0000  0.0000  0.0000
  939OM     OM1  939   3.421   1.294   1.041  0.0000  0.0000  0.0000
  940OM     OM1  940   3.409   1.256   1.302  0.0000  0.0000  0.0000
  941OM     OM1  941   6.171   6.344   8.664  0.0000  0.0000  0.0000
  942OM     OM1  942   6.183   6.103   8.723  0.0000  0.0000  0.0000
  943OM     OM1  943   6.187   6.178   8.462  0.0000  0.0000  0.0000
  944OM     OM1  944   6.398   6.193   8.618  0.0000  0.0000  0.0000
  945OM     OM1  945   0.264   6.276   0.654  0.0000  0.0000  0.0000
  946OM     OM1  946   0.153   6.253   0.408  0.0000  0.0000  0.0000
  947OM     OM1  947   0.087   6.441   0.578  0.0000  0.0000  0.0000
  948OM     OM1  948   0.020   6.201   0.634  0.0000  0.0000  0.0000
  949OM     OM1  949   4.779   6.897   8.563  0.0000  0.0000  0.0000
  950OM     OM1  950   4.973   6.664   8.895  0.0000  0.0000  0.0000
  951OM     OM1  951   4.953   6.899   8.763  0.0000  0.0000  0.0000
  952OM     OM1  952   5.032   6.693   8.642  0.0000  0.0000  0.0000
  953OM     OM1  953   8.020   3.565   8.523  0.0000  0.0000  0.0000
  954OM     OM1  954   8.073   3.687   8.753  0.0000  0.0000  0.0000
  955OM     OM1  955   7.943   3.458   8.740  0.0000  0.0000  0.0000
  956OM     OM1  956   7.819   3.666   8.667  0.0000  0.0000  0.0000
  957OM     OM1  957   7.507   5.876   9.027  0.0000  0.0000  0.0000
  958OM     OM1  958   7.473   5.886   9.281  0.0000  0.0000  0.0000
  959OM     OM1  959   7.705   5.769   8.897  0.0000  0.0000  0.0000
  960OM     OM1  960   7.727   5.922   9.230  0.0000  0.0000  0.0000
  961OM     OM1  961   2.332   5.654   0.263  0.0000  0.0000  0.0000
  962OM     OM1  962   2.110   5.728   0.382  0.0000  0.0000  0.0000
  963OM     OM1  963   2.268   5.539   0.483  0.0000  0.0000  0.0000
  964OM     OM1  964   6.584   5.445   1.290  0.0000  0.0000  0.0000
  965OM     OM1  965   6.402   5.619   1.268  0.0000  0.0000  0.0000
  966OM     OM1  966   7.360   9.000   0.725  0.0000  0.0000  0.0000
  967OM     OM1  967   7.567   8.845   0.752  0.0000  0.0000  0.0000
  968OM     OM1  968   7.497   8.934   0.521  0.0000  0.0000  0.0000
  969OM     OM1  969   7.360   8.744   0.644  0.0000  0.0000  0.0000
  970OM     OM1  970   9.140   7.089   9.164  0.0000  0.0000  0.0000
  971OM     OM1  971   9.115   7.187   9.394  0.0000  0.0000  0.0000
  972OM     OM1  972   8.950   7.260   9.208  0.0000  0.0000  0.0000
  973OM     OM1  973   8.931   7.017   9.296  0.0000  0.0000  0.0000
  974OM     OM1  974   1.669   2.761   0.808  0.0000  0.0000  0.0000
  975OM     OM1  975   1.844   2.703   1.018  0.0000  0.0000  0.0000
  976OM     OM1  976   1.584   2.684   1.041  0.0000  0.0000  0.0000
  977OM     OM1  977   1.704   2.917   1.013  0.0000  0.0000  0.0000
  978OM     OM1  978   0.131   5.388   1.236  0.0000  0.0000  0.0000
  979OM     OM1  979   0.040   5.562   1.072  0.0000  0.0000  0.0000
  980OM     OM1  980   0.122   5.652   1.298  0.0000  0.0000  0.0000
  981OM     OM1  981   2.359   7.720   0.270  0.0000  0.0000  0.0000
  982OM     OM1  982   2.527   7.752   0.464  0.0000  0.0000  0.0000
  983OM     OM1  983   2.407   7.490   0.148  0.0000  0.0000  0.0000
  984OM     OM1  984   2.415   7.707   0.016  0.0000  0.0000  0.0000
  985OM     OM1  985   1.876   2.187   8.383  0.0000  0.0000  0.0000
  986OM     OM1  986   1.032   3.065   1.262  0.0000  0.0000  0.0000
  987OM     OM1  987   1.099   2.967   0.785  0.0000  0.0000  0.0000
  988OM     OM1  988   1.227   2.854   0.972  0.0000  0.0000  0.0000
  989OM     OM1  989   8.631   5.360   8.739  0.0000  0.0000  0.0000
  990OM     OM1  990   8.577   5.183   8.560  0.0000  0.0000  0.0000
  991OM     OM1  991   8.794   5.331   8.530  0.0000  0.0000  0.0000
  992OM     OM1  992   8.789   5.148   8.703  0.0000  0.0000  0.0000
  993OM     OM1  993   4.156   6.959   8.724  0.0000  0.0000  0.0000
  994OM     OM1  994   3.973   7.153   8.672  0.0000  0.0000  0.0000
  995OM     OM1  995   4.223   7.204   8.663  0.0000  0.0000  0.0000
  996OM     OM1  996   3.851   7.593   8.920  0.0000  0.0000  0.0000
  997OM     OM1  997   3.696   7.697   9.108  0.0000  0.0000  0.0000
  998OM     OM1  998   3.923   7.583   9.158  0.0000  0.0000  0.0000
  999OM     OM1  999   3.718   7.434   9.095  0.0000  0.0000  0.0000
 1000OM     OM1 1000   7.167   6.323   9.350  0.0000  0.0000  0.0000
 1001OM     OM1 1001   7.413   6.229   9.353  0.0000  0.0000  0.0000
 1002OM     OM1 1002   7.291   6.236   9.578  0.0000  0.0000  0.0000
 1003OM     OM1 1003   7.364   6.457   9.449  0.0000  0.0000  0.0000
 1004OM     OM1 1004   5.359   8.414   0.203  0.0000  0.0000  0.0000
 1005OM     OM1 1005   5.125   8.513   0.276  0.0000  0.0000  0.0000
 1006OM     OM1 1006   5.348   8.508   0.433  0.0000  0.0000  0.0000
 1007OM     OM1 1007   5.327   8.670   0.224  0.0000  0.0000  0.0000
 1008OM     OM1 1008   3.501   1.900   0.391  0.0000  0.0000  0.0000
 1009OM     OM1 1009   3.248   1.873   0.500  0.0000  0.0000  0.0000
 1010OM     OM1 1010   3.447   2.259   0.398  0.0000  0.0000  0.0000
 1011OM     OM1 1011   3.303   2.051   0.325  0.0000  0.0000  0.0000
 1012OM     OM1 1012   1.883   5.821   0.485  0.0000  0.0000  0.0000
 1013OM     OM1 1013   1.803   6.076   0.444  0.0000  0.0000  0.0000
 1014OM     OM1 1014   2.043   6.015   0.513  0.0000  0.0000  0.0000
 1015OM     OM1 1015   1.847   5.990   0.686  0.0000  0.0000  0.0000
 1016OM     OM1 1016   1.073   4.305   0.856  0.0000  0.0000  0.0000
 1017OM     OM1 1017   1.044   4.382   1.105  0.0000  0.0000  0.0000
 1018OM     OM1 1018   1.284   4.380   1.005  0.0000  0.0000  0.0000
 1019OM     OM1 1019   1.097   4.550   0.916  0.0000  0.0000  0.0000
 1020OM     OM1 1020   7.901   3.579   8.301  0.0000  0.0000  0.0000
 1021OM     OM1 1021   8.008   3.345   8.364  0.0000  0.0000  0.0000
 1022OM     OM1 1022   8.165   3.531   8.302  0.0000  0.0000  0.0000
 1023OM     OM1 1023   5.942   8.854   0.091  0.0000  0.0000  0.0000
 1024OM     OM1 1024   6.153   8.829   0.256  0.0000  0.0000  0.0000
 1025OM     OM1 1025   5.905   8.781   0.343  0.0000  0.0000  0.0000
 1026OM     OM1 1026   5.987   9.016   0.287  0.0000  0.0000  0.0000
 1027OM     OM1 1027   6.550   6.540   1.227  0.0000  0.0000  0.0000
 1028OM     OM1 1028   6.674   6.743   1.102  0.0000  0.0000  0.0000
 1029OM     OM1 1029   6.411   6.682   1.072  0.0000  0.0000  0.0000
 1030OM     OM1 1030   0.574   8.858   8.890  0.0000  0.0000  0.0000
 1031OM     OM1 1031   0.782   8.802   9.035  0.0000  0.0000  0.0000
 1032OM     OM1 1032   0.768   8.697   8.795  0.0000  0.0000  0.0000
 1033OM     OM1 1033   0.807   8.947   8.816  0.0000  0.0000  0.0000
 1034OM     OM1 1034   0.228   4.592   1.379  0.0000  0.0000  0.0000
 1035OM     OM1 1035   0.413   4.737   1.270  0.0000  0.0000  0.0000
 1036OM     OM1 1036   4.548   6.405   1.195  0.0000  0.0000  0.0000
 1037OM     OM1 1037   4.799   6.404   1.141  0.0000  0.0000  0.0000
 1038OM     OM1 1038   4.687   6.636   1.150  0.0000  0.0000  0.0000
 1039OM     OM1 1039   4.637   6.467   0.955  0.0000  0.0000  0.0000
 1040OM     OM1 1040   0.355   8.724   1.260  0.0000  0.0000  0.0000
 1041OM     OM1 1041   0.416   8.562   1.075  0.0000  0.0000  0.0000
 1042OM     OM1 1042   0.394   8.478   1.321  0.0000  0.0000  0.0000
 1043OM     OM1 1043   0.615   8.351   1.281  0.0000  0.0000  0.0000
 1044OM     OM1 1044   0.618   8.599   1.379  0.0000  0.0000  0.0000
 1045OM     OM1 1045   3.328   4.235   9.367  0.0000  0.0000  0.0000
 1046OM     OM1 1046   3.281   4.013   9.520  0.0000  0.0000  0.0000
 1047OM     OM1 1047   3.320   4.000   9.259  0.0000  0.0000  0.0000
 1048OM     OM1 1048   3.512   4.054   9.426  0.0000  0.0000  0.0000
 1049OM     OM1 1049   4.235   8.970   9.249  0.0000  0.0000  0.0000
 1050OM     OM1 1050   4.128   9.103   9.450  0.0000  0.0000  0.0000
 1051OM     OM1 1051   4.138   9.195   9.199  0.0000  0.0000  0.0000
 1052OM     OM1 1052   0.689   6.868   9.394  0.0000  0.0000  0.0000
 1053OM     OM1 1053   0.487   6.973   9.277  0.0000  0.0000  0.0000
 1054OM     OM1 1054   0.455   6.817   9.492  0.0000  0.0000  0.0000
 1055OM     OM1 1055   0.513   6.708   9.267  0.0000  0.0000  0.0000
 1056OM     OM1 1056   6.764   2.044   0.779  0.0000  0.0000  0.0000
 1057OM     OM1 1057   6.827   1.837   0.630  0.0000  0.0000  0.0000
 1058OM     OM1 1058   6.832   2.086   0.538  0.0000  0.0000  0.0000
 1059OM     OM1 1059   7.013   2.009   0.713  0.0000  0.0000  0.0000
 1060OM     OM1 1060   6.832   8.690   0.746  0.0000  0.0000  0.0000
 1061OM     OM1 1061   6.999   8.791   0.580  0.0000  0.0000  0.0000
 1062OM     OM1 1062   6.946   8.471   0.686  0.0000  0.0000  0.0000
 1063OM     OM1 1063   5.000   7.523   8.928  0.0000  0.0000  0.0000
 1064OM     OM1 1064   5.002   7.752   8.822  0.0000  0.0000  0.0000
 1065OM     OM1 1065   5.205   7.585   8.773  0.0000  0.0000  0.0000
 1066OM     OM1 1066   9.129   6.738   0.702  0.0000  0.0000  0.0000
 1067OM     OM1 1067   9.218   6.530   0.789  0.0000  0.0000  0.0000
 1068OM     OM1 1068   8.963   6.587   0.850  0.0000  0.0000  0.0000
 1069OM     OM1 1069   9.152   6.714   0.967  0.0000  0.0000  0.0000
 1070OM     OM1 1070   9.044   7.664   0.593  0.0000  0.0000  0.0000
 1071OM     OM1 1071   8.907   7.862   0.472  0.0000  0.0000  0.0000
 1072OM     OM1 1072   8.935   7.848   0.731  0.0000  0.0000  0.0000
 1073OM     OM1 1073   4.521   6.145   1.140  0.0000  0.0000  0.0000
 1074OM     OM1 1074   4.369   6.033   0.947  0.0000  0.0000  0.0000
 1075OM     OM1 1075   4.322   5.993   1.193  0.0000  0.0000  0.0000
 1076OM     OM1 1076   4.527   5.881   1.082  0.0000  0.0000  0.0000
 1077OM     OM1 1077   5.615   7.386   1.033  0.0000  0.0000  0.0000
 1078OM     OM1 1078   5.618   7.511   0.803  0.0000  0.0000  0.0000
 1079OM     OM1 1079   5.387   7.459   0.923  0.0000  0.0000  0.0000
 1080OM     OM1 1080   5.536   7.278   0.807  0.0000  0.0000  0.0000
 1081OM     OM1 1081   1.802   6.949   8.581  0.0000  0.0000  0.0000
 1082OM     OM1 1082   1.840   7.205   8.564  0.0000  0.0000  0.0000
 1083OM     OM1 1083   2.020   7.058   8.462  0.0000  0.0000  0.0000
 1084OM     OM1 1084   1.991   7.058   8.718  0.0000  0.0000  0.0000
 1085OM     OM1 1085   0.943   7.304   8.975  0.0000  0.0000  0.0000
 1086OM     OM1 1086   1.007   7.089   9.116  0.0000  0.0000  0.0000
 1087OM     OM1 1087   0.764   7.197   9.123  0.0000  0.0000  0.0000
 1088OM     OM1 1088   0.963   7.308   9.245  0.0000  0.0000  0.0000
 1089OM     OM1 1089   0.763   5.111   9.494  0.0000  0.0000  0.0000
 1090OM     OM1 1090   0.808   5.092   0.140  0.0000  0.0000  0.0000
 1091OM     OM1 1091   1.022   5.123   9.593  0.0000  0.0000  0.0000
 1092OM     OM1 1092   0.873   5.317   0.024  0.0000  0.0000  0.0000
 1093OM     OM1 1093   8.102   9.451   9.274  0.0000  0.0000  0.0000
 1094OM     OM1 1094   8.095   0.090   9.371  0.0000  0.0000  0.0000
 1095OM     OM1 1095   8.303   0.015   9.251  0.0000  0.0000  0.0000
 1096OM     OM1 1096   8.460   0.512   8.928  0.0000  0.0000  0.0000
 1097OM     OM1 1097   8.319   0.313   8.838  0.0000  0.0000  0.0000
 1098OM     OM1 1098   8.480   0.278   9.044  0.0000  0.0000  0.0000
 1099OM     OM1 1099   8.255   0.413   9.063  0.0000  0.0000  0.0000
 1100OM     OM1 1100   3.381   8.537   9.344  0.0000  0.0000  0.0000
 1101OM     OM1 1101   3.583   8.650   9.464  0.0000  0.0000  0.0000
 1102OM     OM1 1102   3.390   8.518   9.597  0.0000  0.0000  0.0000
 1103OM     OM1 1103   3.563   8.386   9.447  0.0000  0.0000  0.0000
 1104OM     OM1 1104   0.748   3.336   0.373  0.0000  0.0000  0.0000
 1105OM     OM1 1105   0.799   3.158   0.179  0.0000  0.0000  0.0000
 1106OM     OM1 1106   0.786   3.085   0.428  0.0000  0.0000  0.0000
 1107OM     OM1 1107   4.600   7.692   8.940  0.0000  0.0000  0.0000
 1108OM     OM1 1108   4.667   7.945   8.936  0.0000  0.0000  0.0000
 1109OM     OM1 1109   4.569   7.846   9.148  0.0000  0.0000  0.0000
 1110OM     OM1 1110   5.637   3.567   8.190  0.0000  0.0000  0.0000
 1111OM     OM1 1111   5.441   3.501   8.343  0.0000  0.0000  0.0000
 1112OM     OM1 1112   5.490   3.761   8.288  0.0000  0.0000  0.0000
 1113OM     OM1 1113   8.892   0.032   0.661  0.0000  0.0000  0.0000
 1114OM     OM1 1114   8.998   0.224   0.799  0.0000  0.0000  0.0000
 1115OM     OM1 1115   8.940   0.013   0.411  0.0000  0.0000  0.0000
 1116OM     OM1 1116   8.690   0.038   0.489  0.0000  0.0000  0.0000
 1117OM     OM1 1117   0.215   1.053   1.063  0.0000  0.0000  0.0000
 1118OM     OM1 1118   0.339   1.148   1.268  0.0000  0.0000  0.0000
 1119OM     OM1 1119   0.350   0.889   1.233  0.0000  0.0000  0.0000
 1120OM     OM1 1120   0.121   0.987   1.290  0.0000  0.0000  0.0000
 1121OM     OM1 1121   8.419   0.100   8.557  0.0000  0.0000  0.0000
 1122OM     OM1 1122   8.452   0.360   8.509  0.0000  0.0000  0.0000
 1123OM     OM1 1123   8.598   0.165   8.392  0.0000  0.0000  0.0000
 1124OM     OM1 1124   8.629   0.228   8.650  0.0000  0.0000  0.0000
 1125OM     OM1 1125   3.736   2.039   0.362  0.0000  0.0000  0.0000
 1126OM     OM1 1126   3.707   1.819   0.244  0.0000  0.0000  0.0000
 1127OM     OM1 1127   3.726   1.821   0.503  0.0000  0.0000  0.0000
 1128OM     OM1 1128   8.930   4.967   8.839  0.0000  0.0000  0.0000
 1129OM     OM1 1129   9.041   5.116   8.658  0.0000  0.0000  0.0000
 1130OM     OM1 1130   4.734   6.568   9.557  0.0000  0.0000  0.0000
 1131OM     OM1 1131   4.891   6.222   9.390  0.0000  0.0000  0.0000
 1132OM     OM1 1132   4.730   6.354   0.100  0.0000  0.0000  0.0000
 1133OM     OM1 1133   3.080   3.395   9.529  0.0000  0.0000  0.0000
 1134OM     OM1 1134   2.845   3.507   9.580  0.0000  0.0000  0.0000
 1135OM     OM1 1135   2.855   3.276   9.463  0.0000  0.0000  0.0000
 1136OM     OM1 1136   2.930   3.493   9.337  0.0000  0.0000  0.0000
 1137OM     OM1 1137   3.480   7.576   8.424  0.0000  0.0000  0.0000
 1138OM     OM1 1138   7.526   0.515   9.536  0.0000  0.0000  0.0000
 1139OM     OM1 1139   7.286   0.507   9.599  0.0000  0.0000  0.0000
 1140OM     OM1 1140   7.357   0.648   9.386  0.0000  0.0000  0.0000
 1141OM     OM1 1141   7.393   0.743   0.011  0.0000  0.0000  0.0000
 1142OM     OM1 1142   7.546   4.713   0.247  0.0000  0.0000  0.0000
 1143OM     OM1 1143   7.681   4.863   0.062  0.0000  0.0000  0.0000
 1144OM     OM1 1144   7.517   4.678   9.600  0.0000  0.0000  0.0000
 1145OM     OM1 1145   7.751   4.620   0.119  0.0000  0.0000  0.0000
 1146OM     OM1 1146   3.890   5.556   8.575  0.0000  0.0000  0.0000
 1147OM     OM1 1147   4.089   5.663   8.698  0.0000  0.0000  0.0000
 1148OM     OM1 1148   4.117   5.642   8.446  0.0000  0.0000  0.0000
 1149OM     OM1 1149   3.932   5.809   8.532  0.0000  0.0000  0.0000
 1150OM     OM1 1150   2.493   3.228   0.068  0.0000  0.0000  0.0000
 1151OM     OM1 1151   2.653   3.066   0.199  0.0000  0.0000  0.0000
 1152OM     OM1 1152   2.594   3.454   0.004  0.0000  0.0000  0.0000
 1153OM     OM1 1153   5.228   4.923   0.922  0.0000  0.0000  0.0000
 1154OM     OM1 1154   5.030   5.077   1.003  0.0000  0.0000  0.0000
 1155OM     OM1 1155   5.273   5.171   1.018  0.0000  0.0000  0.0000
 1156OM     OM1 1156   5.172   5.131   0.782  0.0000  0.0000  0.0000
 1157OM     OM1 1157   5.956   6.497   8.640  0.0000  0.0000  0.0000
 1158OM     OM1 1158   5.985   6.380   8.866  0.0000  0.0000  0.0000
 1159OM     OM1 1159   6.149   6.563   8.802  0.0000  0.0000  0.0000
 1160OM     OM1 1160   6.655   8.868   9.287  0.0000  0.0000  0.0000
 1161OM     OM1 1161   6.997   8.526   9.240  0.0000  0.0000  0.0000
 1162OM     OM1 1162   6.887   8.771   9.253  0.0000  0.0000  0.0000
 1163OM     OM1 1163   6.847   8.913   9.463  0.0000  0.0000  0.0000
 1164OM     OM1 1164   5.741   4.556   0.279  0.0000  0.0000  0.0000
 1165OM     OM1 1165   5.949   4.625   0.126  0.0000  0.0000  0.0000
 1166OM     OM1 1166   5.716   4.750   0.111  0.0000  0.0000  0.0000
 1167OM     OM1 1167   5.735   4.496   0.036  0.0000  0.0000  0.0000
 1168OM     OM1 1168   0.701   0.290   1.125  0.0000  0.0000  0.0000
 1169OM     OM1 1169   0.858   0.426   0.958  0.0000  0.0000  0.0000
 1170OM     OM1 1170   0.746   0.542   1.162  0.0000  0.0000  0.0000
 1171OM     OM1 1171   0.947   0.351   1.185  0.0000  0.0000  0.0000
 1172OM     OM1 1172   0.630   4.952   9.008  0.0000  0.0000  0.0000
 1173OM     OM1 1173   0.824   5.112   9.065  0.0000  0.0000  0.0000
 1174OM     OM1 1174   0.587   5.202   9.068  0.0000  0.0000  0.0000
 1175OM     OM1 1175   0.655   5.038   9.263  0.0000  0.0000  0.0000
 1176OM     OM1 1176   0.709   4.161   9.425  0.0000  0.0000  0.0000
 1177OM     OM1 1177   0.795   3.917   9.446  0.0000  0.0000  0.0000
 1178OM     OM1 1178   0.859   4.098   0.026  0.0000  0.0000  0.0000
 1179OM     OM1 1179   7.237   1.138   8.372  0.0000  0.0000  0.0000
 1180OM     OM1 1180   7.282   1.226   8.128  0.0000  0.0000  0.0000
 1181OM     OM1 1181   1.927   7.135   0.190  0.0000  0.0000  0.0000
 1182OM     OM1 1182   2.098   7.119   0.394  0.0000  0.0000  0.0000
 1183OM     OM1 1183   1.893   6.946   0.366  0.0000  0.0000  0.0000
 1184OM     OM1 1184   2.097   6.931   0.222  0.0000  0.0000  0.0000
 1185OM     OM1 1185   8.815   8.394   0.735  0.0000  0.0000  0.0000
 1186OM     OM1 1186   8.974   8.600   0.734  0.0000  0.0000  0.0000
 1187OM     OM1 1187   8.958   8.444   0.527  0.0000  0.0000  0.0000
 1188OM     OM1 1188   9.073   8.361   0.745  0.0000  0.0000  0.0000
 1189OM     OM1 1189   8.367   6.965   9.374  0.0000  0.0000  0.0000
 1190OM     OM1 1190   8.325   6.802   9.585  0.0000  0.0000  0.0000
 1191OM     OM1 1191   8.483   6.743   9.380  0.0000  0.0000  0.0000
 1192OM     OM1 1192   8.241   7.030   9.165  0.0000  0.0000  0.0000
 1193OM     OM1 1193   2.675   0.305   8.959  0.0000  0.0000  0.0000
 1194OM     OM1 1194   2.475   0.311   8.806  0.0000  0.0000  0.0000
 1195OM     OM1 1195   2.643   0.104   8.794  0.0000  0.0000  0.0000
 1196OM     OM1 1196   2.712   0.331   8.699  0.0000  0.0000  0.0000
 1197OM     OM1 1197   7.556   5.059   9.559  0.0000  0.0000  0.0000
 1198OM     OM1 1198   7.796   5.106   0.047  0.0000  0.0000  0.0000
 1199OM     OM1 1199   0.653   9.540   0.533  0.0000  0.0000  0.0000
 1200OM     OM1 1200   0.724   9.078   0.631  0.0000  0.0000  0.0000
 1201OM     OM1 1201   0.807   9.334   0.556  0.0000  0.0000  0.0000
 1202OM     OM1 1202   0.600   9.299   0.685  0.0000  0.0000  0.0000
 1203OM     OM1 1203   7.274   5.950   9.107  0.0000  0.0000  0.0000
 1204OM     OM1 1204   7.557   5.961   8.777  0.0000  0.0000  0.0000
 1205OM     OM1 1205   7.454   5.737   8.820  0.0000  0.0000  0.0000
 1206OM     OM1 1206   1.848   4.144   1.236  0.0000  0.0000  0.0000
 1207OM     OM1 1207   2.027   4.301   1.349  0.0000  0.0000  0.0000
 1208OM     OM1 1208   1.352   1.058   0.816  0.0000  0.0000  0.0000
 1209OM     OM1 1209   1.372   1.236   1.011  0.0000  0.0000  0.0000
 1210OM     OM1 1210   1.224   1.016   1.032  0.0000  0.0000  0.0000
 1211OM     OM1 1211   8.902   7.902   9.089  0.0000  0.0000  0.0000
 1212OM     OM1 1212   8.881   7.715   9.275  0.0000  0.0000  0.0000
 1213OM     OM1 1213   8.759   7.939   9.304  0.0000  0.0000  0.0000
 1214OM     OM1 1214   9.018   7.930   9.329  0.0000  0.0000  0.0000
 1215OM     OM1 1215   7.752   2.058   0.984  0.0000  0.0000  0.0000
 1216OM     OM1 1216   7.999   2.103   1.073  0.0000  0.0000  0.0000
 1217OM     OM1 1217   7.959   2.037   0.825  0.0000  0.0000  0.0000
 1218OM     OM1 1218   7.867   2.270   0.900  0.0000  0.0000  0.0000
 1219OM     OM1 1219   5.446   5.934   8.796  0.0000  0.0000  0.0000
 1220OM     OM1 1220   5.281   5.566   8.757  0.0000  0.0000  0.0000
 1221OM     OM1 1221   5.339   5.924   8.556  0.0000  0.0000  0.0000
 1222OM     OM1 1222   3.043   5.763   8.264  0.0000  0.0000  0.0000
 1223OM     OM1 1223   3.169   5.989   8.280  0.0000  0.0000  0.0000
 1224OM     OM1 1224   3.287   5.768   8.176  0.0000  0.0000  0.0000
 1225OM     OM1 1225   4.531   6.466   0.498  0.0000  0.0000  0.0000
 1226OM     OM1 1226   4.546   6.452   0.248  0.0000  0.0000  0.0000
 1227OM     OM1 1227   4.441   6.675   0.368  0.0000  0.0000  0.0000
 1228OM     OM1 1228   4.692   6.627   0.355  0.0000  0.0000  0.0000
 1229OM     OM1 1229   0.428   1.586   8.649  0.0000  0.0000  0.0000
 1230OM     OM1 1230   0.622   1.644   8.495  0.0000  0.0000  0.0000
 1231OM     OM1 1231   0.381   1.688   8.409  0.0000  0.0000  0.0000
 1232OM     OM1 1232   0.478   1.837   8.596  0.0000  0.0000  0.0000
 1233OM     OM1 1233   4.964   2.686   0.194  0.0000  0.0000  0.0000
 1234OM     OM1 1234   4.719   2.698   0.270  0.0000  0.0000  0.0000
 1235OM     OM1 1235   4.790   2.773   0.018  0.0000  0.0000  0.0000
 1236OM     OM1 1236   4.758   2.530   0.081  0.0000  0.0000  0.0000
 1237OM     OM1 1237   9.228   4.008   8.463  0.0000  0.0000  0.0000
 1238OM     OM1 1238   9.479   3.948   8.406  0.0000  0.0000  0.0000
 1239OM     OM1 1239   9.299   3.766   8.451  0.0000  0.0000  0.0000
 1240OM     OM1 1240   7.178   1.916   8.421  0.0000  0.0000  0.0000
 1241OM     OM1 1241   7.089   2.015   8.642  0.0000  0.0000  0.0000
 1242OM     OM1 1242   7.231   1.798   8.653  0.0000  0.0000  0.0000
 1243OM     OM1 1243   8.053   7.867   9.211  0.0000  0.0000  0.0000
 1244OM     OM1 1244   8.201   7.663   9.283  0.0000  0.0000  0.0000
 1245OM     OM1 1245   8.282   7.918   9.323  0.0000  0.0000  0.0000
 1246OM     OM1 1246   2.091   4.511   9.022  0.0000  0.0000  0.0000
 1247OM     OM1 1247   2.105   4.374   9.237  0.0000  0.0000  0.0000
 1248OM     OM1 1248   2.186   4.257   9.026  0.0000  0.0000  0.0000
 1249OM     OM1 1249   2.320   4.465   9.140  0.0000  0.0000  0.0000
 1250OM     OM1 1250   3.495   0.377   9.261  0.0000  0.0000  0.0000
 1251OM     OM1 1251   3.564   0.548   9.452  0.0000  0.0000  0.0000
 1252OM     OM1 1252   3.311   0.516   9.391  0.0000  0.0000  0.0000
 1253OM     OM1 1253   3.479   0.632   9.230  0.0000  0.0000  0.0000
 1254OM     OM1 1254   8.368   9.195   0.247  0.0000  0.0000  0.0000
 1255OM     OM1 1255   8.396   9.158   0.508  0.0000  0.0000  0.0000
 1256OM     OM1 1256   8.163   9.219   0.436  0.0000  0.0000  0.0000
 1257OM     OM1 1257   8.329   9.402   0.406  0.0000  0.0000  0.0000
 1258OM     OM1 1258   1.798   1.990   1.108  0.0000  0.0000  0.0000
 1259OM     OM1 1259   1.415   6.837   1.284  0.0000  0.0000  0.0000
 1260OM     OM1 1260   1.177   6.801   1.262  0.0000  0.0000  0.0000
 1261OM     OM1 1261   1.324   6.587   1.192  0.0000  0.0000  0.0000
 1262OM     OM1 1262   1.335   6.801   1.045  0.0000  0.0000  0.0000
 1263OM     OM1 1263   4.904   3.105   8.609  0.0000  0.0000  0.0000
 1264OM     OM1 1264   4.811   3.138   8.846  0.0000  0.0000  0.0000
 1265OM     OM1 1265   4.765   2.916   8.716  0.0000  0.0000  0.0000
 1266OM     OM1 1266   6.718   4.652   0.910  0.0000  0.0000  0.0000
 1267OM     OM1 1267   6.503   4.510   0.963  0.0000  0.0000  0.0000
 1268OM     OM1 1268   6.498   4.742   0.827  0.0000  0.0000  0.0000
 1269OM     OM1 1269   6.548   4.732   1.089  0.0000  0.0000  0.0000
 1270OM     OM1 1270   5.441   0.217   0.499  0.0000  0.0000  0.0000
 1271OM     OM1 1271   5.571   0.054   0.653  0.0000  0.0000  0.0000
 1272OM     OM1 1272   5.369   0.170   0.752  0.0000  0.0000  0.0000
 1273OM     OM1 1273   5.330   9.599   0.560  0.0000  0.0000  0.0000
 1274OM     OM1 1274   6.050   7.124   9.552  0.0000  0.0000  0.0000
 1275OM     OM1 1275   6.247   7.293   9.548  0.0000  0.0000  0.0000
 1276OM     OM1 1276   6.231   7.076   9.377  0.0000  0.0000  0.0000
 1277OM     OM1 1277   6.078   7.272   9.342  0.0000  0.0000  0.0000
 1278OM     OM1 1278   3.122   0.597   9.560  0.0000  0.0000  0.0000
 1279OM     OM1 1279   2.948   0.654   0.138  0.0000  0.0000  0.0000
 1280OM     OM1 1280   2.914   0.448   0.013  0.0000  0.0000  0.0000
 1281OM     OM1 1281   3.130   0.455   0.172  0.0000  0.0000  0.0000
 1282OM     OM1 1282   1.120   7.387   0.085  0.0000  0.0000  0.0000
 1283OM     OM1 1283   1.064   7.645   0.042  0.0000  0.0000  0.0000
 1284OM     OM1 1284   1.172   7.510   0.426  0.0000  0.0000  0.0000
 1285OM     OM1 1285   1.261   7.580   0.185  0.0000  0.0000  0.0000
 1286OM     OM1 1286   8.251   8.538   8.492  0.0000  0.0000  0.0000
 1287OM     OM1 1287   8.187   8.355   8.659  0.0000  0.0000  0.0000
 1288OM     OM1 1288   8.468   8.527   8.327  0.0000  0.0000  0.0000
 1289OM     OM1 1289   4.618   6.975   8.742  0.0000  0.0000  0.0000
 1290OM     OM1 1290   4.591   6.734   8.643  0.0000  0.0000  0.0000
 1291OM     OM1 1291   4.521   6.951   8.504  0.0000  0.0000  0.0000
 1292OM     OM1 1292   4.629   4.097   8.806  0.0000  0.0000  0.0000
 1293OM     OM1 1293   4.726   4.326   8.743  0.0000  0.0000  0.0000
 1294OM     OM1 1294   4.488   4.269   8.659  0.0000  0.0000  0.0000
 1295OM     OM1 1295   4.688   4.142   8.554  0.0000  0.0000  0.0000
 1296OM     OM1 1296   0.404   1.413   0.095  0.0000  0.0000  0.0000
 1297OM     OM1 1297   0.455   1.223   0.270  0.0000  0.0000  0.0000
 1298OM     OM1 1298   0.303   1.177   0.069  0.0000  0.0000  0.0000
 1299OM     OM1 1299   1.669   2.992   8.900  0.0000  0.0000  0.0000
 1300OM     OM1 1300   1.479   3.089   8.738  0.0000  0.0000  0.0000
 1301OM     OM1 1301   1.508   3.163   8.986  0.0000  0.0000  0.0000
 1302OM     OM1 1302   1.421   2.925   8.933  0.0000  0.0000  0.0000
 1303OM     OM1 1303   0.614   8.607   0.508  0.0000  0.0000  0.0000
 1304OM     OM1 1304   0.535   8.971   0.781  0.0000  0.0000  0.0000
 1305OM     OM1 1305   0.701   8.814   0.663  0.0000  0.0000  0.0000
 1306OM     OM1 1306   0.864   8.675   0.514  0.0000  0.0000  0.0000
 1307OM     OM1 1307   3.524   4.042   9.102  0.0000  0.0000  0.0000
 1308OM     OM1 1308   3.357   3.841   9.054  0.0000  0.0000  0.0000
 1309OM     OM1 1309   3.292   4.094   9.017  0.0000  0.0000  0.0000
 1310OM     OM1 1310   4.503   6.205   0.555  0.0000  0.0000  0.0000
 1311OM     OM1 1311   4.401   6.391   0.706  0.0000  0.0000  0.0000
 1312OM     OM1 1312   4.653   6.373   0.705  0.0000  0.0000  0.0000
 1313OM     OM1 1313   9.336   9.467   0.756  0.0000  0.0000  0.0000
 1314OM     OM1 1314   9.152   0.038   0.695  0.0000  0.0000  0.0000
 1315OM     OM1 1315   9.229   9.463   0.522  0.0000  0.0000  0.0000
 1316OM     OM1 1316   9.387   0.063   0.589  0.0000  0.0000  0.0000
 1317OM     OM1 1317   4.148   6.796   0.731  0.0000  0.0000  0.0000
 1318OM     OM1 1318   4.360   6.917   0.787  0.0000  0.0000  0.0000
 1319OM     OM1 1319   4.321   6.828   0.541  0.0000  0.0000  0.0000
 1320OM     OM1 1320   4.357   6.649   0.728  0.0000  0.0000  0.0000
 1321OM     OM1 1321   5.639   0.203   0.324  0.0000  0.0000  0.0000
 1322OM     OM1 1322   5.884   0.258   0.387  0.0000  0.0000  0.0000
 1323OM     OM1 1323   5.842   0.144   0.162  0.0000  0.0000  0.0000
 1324OM     OM1 1324   5.757   0.393   0.196  0.0000  0.0000  0.0000
 1325OM     OM1 1325   9.456   2.113   8.496  0.0000  0.0000  0.0000
 1326OM     OM1 1326   9.299   1.923   8.567  0.0000  0.0000  0.0000
 1327OM     OM1 1327   9.425   1.912   8.338  0.0000  0.0000  0.0000
 1328OM     OM1 1328   9.565   1.878   8.545  0.0000  0.0000  0.0000
 1329OM     OM1 1329   8.225   4.025   8.306  0.0000  0.0000  0.0000
 1330OM     OM1 1330   8.280   4.280   8.270  0.0000  0.0000  0.0000
 1331OM     OM1 1331   8.021   3.883   8.377  0.0000  0.0000  0.0000
 1332OM     OM1 1332   6.108   4.822   0.552  0.0000  0.0000  0.0000
 1333OM     OM1 1333   6.194   4.671   0.751  0.0000  0.0000  0.0000
 1334OM     OM1 1334   6.226   4.601   0.497  0.0000  0.0000  0.0000
 1335OM     OM1 1335   6.366   4.790   0.604  0.0000  0.0000  0.0000
 1336OM     OM1 1336   3.666   3.067   8.555  0.0000  0.0000  0.0000
 1337OM     OM1 1337   3.926   2.993   8.508  0.0000  0.0000  0.0000
 1338OM     OM1 1338   3.724   2.823   8.527  0.0000  0.0000  0.0000
 1339OM     OM1 1339   3.819   2.937   8.733  0.0000  0.0000  0.0000
 1340OM     OM1 1340   5.636   9.383   9.481  0.0000  0.0000  0.0000
 1341OM     OM1 1341   5.840   9.490   9.365  0.0000  0.0000  0.0000
 1342OM     OM1 1342   5.804   9.540   0.008  0.0000  0.0000  0.0000
 1343OM     OM1 1343   7.920   7.319   8.275  0.0000  0.0000  0.0000
 1344OM     OM1 1344   7.675   7.240   8.215  0.0000  0.0000  0.0000
 1345OM     OM1 1345   8.124   8.679   0.367  0.0000  0.0000  0.0000
 1346OM     OM1 1346   7.934   8.581   0.526  0.0000  0.0000  0.0000
 1347OM     OM1 1347   7.873   8.701   0.305  0.0000  0.0000  0.0000
 1348OM     OM1 1348   7.974   8.847   0.496  0.0000  0.0000  0.0000
 1349OM     OM1 1349   0.213   4.437   0.709  0.0000  0.0000  0.0000
 1350OM     OM1 1350   0.225   4.449   0.437  0.0000  0.0000  0.0000
 1351OM     OM1 1351   0.425   4.368   0.592  0.0000  0.0000  0.0000
 1352OM     OM1 1352   0.299   4.305   0.240  0.0000  0.0000  0.0000
 1353OM     OM1 1353   7.137   2.811   0.302  0.0000  0.0000  0.0000
 1354OM     OM1 1354   6.690   2.623   0.317  0.0000  0.0000  0.0000
 1355OM     OM1 1355   6.904   2.919   0.338  0.0000  0.0000  0.0000
 1356OM     OM1 1356   6.916   2.695   0.216  0.0000  0.0000  0.0000
 1357OM     OM1 1357   2.160   5.169   8.886  0.0000  0.0000  0.0000
 1358OM     OM1 1358   1.837   4.840   8.727  0.0000  0.0000  0.0000
 1359OM     OM1 1359   1.967   5.169   9.062  0.0000  0.0000  0.0000
 1360OM     OM1 1360   2.000   4.960   8.906  0.0000  0.0000  0.0000
 1361OM     OM1 1361   1.851   7.737   9.033  0.0000  0.0000  0.0000
 1362OM     OM1 1362   1.894   7.480   9.100  0.0000  0.0000  0.0000
 1363OM     OM1 1363   1.711   7.553   8.925  0.0000  0.0000  0.0000
 1364OM     OM1 1364   1.683   7.601   9.181  0.0000  0.0000  0.0000
 1365OM     OM1 1365   5.581   2.426   0.475  0.0000  0.0000  0.0000
 1366OM     OM1 1366   5.766   2.478   0.651  0.0000  0.0000  0.0000
 1367OM     OM1 1367   5.498   2.437   0.710  0.0000  0.0000  0.0000
 1368OM     OM1 1368   5.575   2.654   0.597  0.0000  0.0000  0.0000
 1369OM     OM1 1369   4.427   3.631   8.390  0.0000  0.0000  0.0000
 1370OM     OM1 1370   4.373   3.883   8.417  0.0000  0.0000  0.0000
 1371OM     OM1 1371   4.563   3.765   8.569  0.0000  0.0000  0.0000
 1372OM     OM1 1372   4.594   3.822   8.314  0.0000  0.0000  0.0000
 1373OM     OM1 1373   3.928   3.210   0.702  0.0000  0.0000  0.0000
 1374OM     OM1 1374   4.152   3.176   0.575  0.0000  0.0000  0.0000
 1375OM     OM1 1375   3.952   3.307   0.460  0.0000  0.0000  0.0000
 1376OM     OM1 1376   6.185   8.840   9.386  0.0000  0.0000  0.0000
 1377OM     OM1 1377   6.415   8.758   9.286  0.0000  0.0000  0.0000
 1378OM     OM1 1378   6.310   8.976   9.199  0.0000  0.0000  0.0000
 1379OM     OM1 1379   6.408   8.957   9.445  0.0000  0.0000  0.0000
 1380OM     OM1 1380   4.006   8.720   8.327  0.0000  0.0000  0.0000
 1381OM     OM1 1381   4.159   8.934   8.321  0.0000  0.0000  0.0000
 1382OM     OM1 1382   4.252   8.720   8.231  0.0000  0.0000  0.0000
 1383OM     OM1 1383   1.616   2.023   8.722  0.0000  0.0000  0.0000
 1384OM     OM1 1384   1.749   2.010   8.949  0.0000  0.0000  0.0000
 1385OM     OM1 1385   1.872   1.978   8.727  0.0000  0.0000  0.0000
 1386OM     OM1 1386   1.705   1.794   8.824  0.0000  0.0000  0.0000
 1387OM     OM1 1387   2.600   0.734   1.082  0.0000  0.0000  0.0000
 1388OM     OM1 1388   2.754   0.945   1.088  0.0000  0.0000  0.0000
 1389OM     OM1 1389   2.846   0.718   0.986  0.0000  0.0000  0.0000
 1390OM     OM1 1390   2.688   6.721   0.896  0.0000  0.0000  0.0000
 1391OM     OM1 1391   2.618   6.703   0.632  0.0000  0.0000  0.0000
 1392OM     OM1 1392   2.814   6.851   0.716  0.0000  0.0000  0.0000
 1393OM     OM1 1393   2.823   6.582   0.721  0.0000  0.0000  0.0000
 1394OM     OM1 1394   4.585   6.338   8.879  0.0000  0.0000  0.0000
 1395OM     OM1 1395   4.576   6.494   9.088  0.0000  0.0000  0.0000
 1396OM     OM1 1396   4.745   6.537   8.898  0.0000  0.0000  0.0000
 1397OM     OM1 1397   4.497   6.589   8.850  0.0000  0.0000  0.0000
 1398OM     OM1 1398   3.851   3.289   8.931  0.0000  0.0000  0.0000
 1399OM     OM1 1399   3.737   3.522   8.998  0.0000  0.0000  0.0000
 1400OM     OM1 1400   3.709   3.309   9.145  0.0000  0.0000  0.0000
 1401OM     OM1 1401   3.587   3.327   8.916  0.0000  0.0000  0.0000
 1402OM     OM1 1402   2.781   8.578   8.996  0.0000  0.0000  0.0000
 1403OM     OM1 1403   2.475   8.403   9.347  0.0000  0.0000  0.0000
 1404OM     OM1 1404   2.555   8.538   8.872  0.0000  0.0000  0.0000
 1405OM     OM1 1405   2.588   8.469   9.125  0.0000  0.0000  0.0000
 1406OM     OM1 1406   2.376   4.564   8.399  0.0000  0.0000  0.0000
 1407OM     OM1 1407   2.562   4.407   8.281  0.0000  0.0000  0.0000
 1408OM     OM1 1408   2.622   4.636   8.403  0.0000  0.0000  0.0000
 1409OM     OM1 1409   3.274   6.161   9.131  0.0000  0.0000  0.0000
 1410OM     OM1 1410   3.196   6.362   9.268  0.0000  0.0000  0.0000
 1411OM     OM1 1411   3.117   6.269   9.494  0.0000  0.0000  0.0000
 1412OM     OM1 1412   3.000   6.186   9.277  0.0000  0.0000  0.0000
 1413OM     OM1 1413   8.914   2.136   8.359  0.0000  0.0000  0.0000
 1414OM     OM1 1414   8.726   2.040   8.204  0.0000  0.0000  0.0000
 1415OM     OM1 1415   7.863   2.464   0.711  0.0000  0.0000  0.0000
 1416OM     OM1 1416   7.732   2.491   0.943  0.0000  0.0000  0.0000
 1417OM     OM1 1417   7.648   2.329   0.758  0.0000  0.0000  0.0000
 1418OM     OM1 1418   7.398   2.836   9.099  0.0000  0.0000  0.0000
 1419OM     OM1 1419   7.316   2.617   9.232  0.0000  0.0000  0.0000
 1420OM     OM1 1420   7.423   2.609   8.998  0.0000  0.0000  0.0000
 1421OM     OM1 1421   7.180   2.729   9.034  0.0000  0.0000  0.0000
 1422OM     OM1 1422   5.646   8.221   8.836  0.0000  0.0000  0.0000
 1423OM     OM1 1423   5.770   8.426   8.753  0.0000  0.0000  0.0000
 1424OM     OM1 1424   5.908   8.255   8.901  0.0000  0.0000  0.0000
 1425OM     OM1 1425   5.733   8.402   9.012  0.0000  0.0000  0.0000
 1426OM     OM1 1426   3.895   0.466   9.239  0.0000  0.0000  0.0000
 1427OM     OM1 1427   4.152   0.476   9.249  0.0000  0.0000  0.0000
 1428OM     OM1 1428   4.041   0.270   9.359  0.0000  0.0000  0.0000
 1429OM     OM1 1429   4.012   0.497   9.473  0.0000  0.0000  0.0000
 1430OM     OM1 1430   2.507   7.812   9.404  0.0000  0.0000  0.0000
 1431OM     OM1 1431   2.385   7.961   9.576  0.0000  0.0000  0.0000
 1432OM     OM1 1432   2.615   7.882   0.037  0.0000  0.0000  0.0000
 1433OM     OM1 1433   0.066   5.138   9.153  0.0000  0.0000  0.0000
 1434OM     OM1 1434   0.064   5.194   9.413  0.0000  0.0000  0.0000
 1435OM     OM1 1435   9.464   5.098   9.294  0.0000  0.0000  0.0000
 1436OM     OM1 1436   0.042   8.943   0.178  0.0000  0.0000  0.0000
 1437OM     OM1 1437   9.476   9.131   0.255  0.0000  0.0000  0.0000
 1438OM     OM1 1438   9.403   8.947   0.086  0.0000  0.0000  0.0000
 1439OM     OM1 1439   9.429   8.892   0.339  0.0000  0.0000  0.0000
 1440OM     OM1 1440   3.120   3.432   0.178  0.0000  0.0000  0.0000
 1441OM     OM1 1441   3.294   3.358   0.358  0.0000  0.0000  0.0000
 1442OM     OM1 1442   3.180   3.591   0.371  0.0000  0.0000  0.0000
 1443OM     OM1 1443   4.427   4.282   8.405  0.0000  0.0000  0.0000
 1444OM     OM1 1444   4.279   4.386   8.229  0.0000  0.0000  0.0000
 1445OM     OM1 1445   3.496   2.522   9.183  0.0000  0.0000  0.0000
 1446OM     OM1 1446   3.355   2.636   9.359  0.0000  0.0000  0.0000
 1447OM     OM1 1447   3.497   2.421   9.418  0.0000  0.0000  0.0000
 1448OM     OM1 1448   3.630   2.639   9.378  0.0000  0.0000  0.0000
 1449OM     OM1 1449   7.065   7.865   8.350  0.0000  0.0000  0.0000
 1450OM     OM1 1450   7.166   7.653   8.247  0.0000  0.0000  0.0000
 1451OM     OM1 1451   5.260   4.762   9.165  0.0000  0.0000  0.0000
 1452OM     OM1 1452   5.136   4.874   8.956  0.0000  0.0000  0.0000
 1453OM     OM1 1453   5.121   4.988   9.187  0.0000  0.0000  0.0000
 1454OM     OM1 1454   4.220   2.626   8.410  0.0000  0.0000  0.0000
 1455OM     OM1 1455   3.997   2.713   8.299  0.0000  0.0000  0.0000
 1456OM     OM1 1456   4.147   2.877   8.438  0.0000  0.0000  0.0000
 1457OM     OM1 1457   7.926   9.187   0.368  0.0000  0.0000  0.0000
 1458OM     OM1 1458   7.979   9.370   0.552  0.0000  0.0000  0.0000
 1459OM     OM1 1459   7.992   9.101   0.597  0.0000  0.0000  0.0000
 1460OM     OM1 1460   8.465   2.378   0.643  0.0000  0.0000  0.0000
 1461OM     OM1 1461   8.277   2.676   0.901  0.0000  0.0000  0.0000
 1462OM     OM1 1462   8.501   2.627   0.778  0.0000  0.0000  0.0000
 1463OM     OM1 1463   8.225   2.615   0.382  0.0000  0.0000  0.0000
 1464OM     OM1 1464   6.504   9.582   9.369  0.0000  0.0000  0.0000
 1465OM     OM1 1465   6.530   9.575   0.022  0.0000  0.0000  0.0000
 1466OM     OM1 1466   6.288   0.031   9.517  0.0000  0.0000  0.0000
 1467OM     OM1 1467   6.494   0.191   9.517  0.0000  0.0000  0.0000
 1468OM     OM1 1468   5.969   6.704   8.491  0.0000  0.0000  0.0000
 1469OM     OM1 1469   5.949   7.062   8.504  0.0000  0.0000  0.0000
 1470OM     OM1 1470   6.086   6.884   8.325  0.0000  0.0000  0.0000
 1471OM     OM1 1471   5.909   7.058   8.253  0.0000  0.0000  0.0000
 1472OM     OM1 1472   9.242   8.984   0.504  0.0000  0.0000  0.0000
 1473OM     OM1 1473   9.195   9.213   0.597  0.0000  0.0000  0.0000
 1474OM     OM1 1474   9.017   9.015   0.644  0.0000  0.0000  0.0000
 1475OM     OM1 1475   9.237   9.018   0.762  0.0000  0.0000  0.0000
 1476OM     OM1 1476   2.043   6.976   1.445  0.0000  0.0000  0.0000
 1477OM     OM1 1477   1.847   7.021   1.283  0.0000  0.0000  0.0000
 1478OM     OM1 1478   7.726   3.000   0.989  0.0000  0.0000  0.0000
 1479OM     OM1 1479   7.515   3.096   0.886  0.0000  0.0000  0.0000
 1480OM     OM1 1480   7.727   3.254   0.935  0.0000  0.0000  0.0000
 1481OM     OM1 1481   7.581   3.172   1.134  0.0000  0.0000  0.0000
 1482OM     OM1 1482   4.254   6.625   9.459  0.0000  0.0000  0.0000
 1483OM     OM1 1483   4.502   6.698   9.506  0.0000  0.0000  0.0000
 1484OM     OM1 1484   4.283   6.773   0.057  0.0000  0.0000  0.0000
 1485OM     OM1 1485   4.317   6.869   9.423  0.0000  0.0000  0.0000
 1486OM     OM1 1486   2.543   3.877   0.560  0.0000  0.0000  0.0000
 1487OM     OM1 1487   2.753   3.753   0.638  0.0000  0.0000  0.0000
 1488OM     OM1 1488   2.717   3.795   0.373  0.0000  0.0000  0.0000
 1489OM     OM1 1489   2.578   3.619   0.509  0.0000  0.0000  0.0000
 1490OM     OM1 1490   5.367   8.077   0.604  0.0000  0.0000  0.0000
 1491OM     OM1 1491   5.319   8.178   0.832  0.0000  0.0000  0.0000
 1492OM     OM1 1492   5.153   8.222   0.632  0.0000  0.0000  0.0000
 1493OM     OM1 1493   5.390   8.339   0.630  0.0000  0.0000  0.0000
 1494OM     OM1 1494   5.749   1.953   8.633  0.0000  0.0000  0.0000
 1495OM     OM1 1495   5.811   1.823   8.413  0.0000  0.0000  0.0000
 1496OM     OM1 1496   5.571   1.908   8.437  0.0000  0.0000  0.0000
 1497OM     OM1 1497   5.642   1.724   8.603  0.0000  0.0000  0.0000
 1498OM     OM1 1498   8.587   3.490   0.381  0.0000  0.0000  0.0000
 1499OM     OM1 1499   8.241   3.453   0.104  0.0000  0.0000  0.0000
 1500OM     OM1 1500   8.406   3.328   0.258  0.0000  0.0000  0.0000
 1501OM     OM1 1501   8.605   3.434   0.131  0.0000  0.0000  0.0000
 1502OM     OM1 1502   6.939   8.146   0.599  0.0000  0.0000  0.0000
 1503OM     OM1 1503   7.128   8.280   0.705  0.0000  0.0000  0.0000
 1504OM     OM1 1504   7.188   8.031   0.614  0.0000  0.0000  0.0000
 1505OM     OM1 1505   7.130   8.228   0.453  0.0000  0.0000  0.0000
 1506OM     OM1 1506   5.011   7.213   0.495  0.0000  0.0000  0.0000
 1507OM     OM1 1507   5.084   7.219   0.734  0.0000  0.0000  0.0000
 1508OM     OM1 1508   5.026   7.452   0.618  0.0000  0.0000  0.0000
 1509OM     OM1 1509   5.243   7.319   0.555  0.0000  0.0000  0.0000
 1510OM     OM1 1510   0.110   0.931   0.848  0.0000  0.0000  0.0000
 1511OM     OM1 1511   0.082   0.907   0.600  0.0000  0.0000  0.0000
 1512OM     OM1 1512   0.330   0.875   0.746  0.0000  0.0000  0.0000
 1513OM     OM1 1513   0.151   0.698   0.730  0.0000  0.0000  0.0000
 1514OM     OM1 1514   4.471   8.250   0.872  0.0000  0.0000  0.0000
 1515OM     OM1 1515   4.410   8.415   0.666  0.0000  0.0000  0.0000
 1516OM     OM1 1516   4.449   8.159   0.637  0.0000  0.0000  0.0000
 1517OM     OM1 1517   4.237   8.267   0.771  0.0000  0.0000  0.0000
 1518OM     OM1 1518   7.214   5.279   0.778  0.0000  0.0000  0.0000
 1519OM     OM1 1519   7.002   5.280   0.631  0.0000  0.0000  0.0000
 1520OM     OM1 1520   6.995   5.202   0.878  0.0000  0.0000  0.0000
 1521OM     OM1 1521   7.114   5.050   0.690  0.0000  0.0000  0.0000
 1522OM     OM1 1522   2.967   3.899   8.997  0.0000  0.0000  0.0000
 1523OM     OM1 1523   2.895   3.954   9.249  0.0000  0.0000  0.0000
 1524OM     OM1 1524   2.975   3.711   9.187  0.0000  0.0000  0.0000
 1525OM     OM1 1525   2.750   3.800   9.102  0.0000  0.0000  0.0000
 1526OM     OM1 1526   8.857   6.298   1.239  0.0000  0.0000  0.0000
 1527OM     OM1 1527   8.832   6.423   1.002  0.0000  0.0000  0.0000
 1528OM     OM1 1528   8.825   6.165   1.017  0.0000  0.0000  0.0000
 1529OM     OM1 1529   9.055   6.295   1.066  0.0000  0.0000  0.0000
 1530OM     OM1 1530   7.450   1.725   9.021  0.0000  0.0000  0.0000
 1531OM     OM1 1531   7.332   1.522   9.118  0.0000  0.0000  0.0000
 1532OM     OM1 1532   7.493   1.487   8.906  0.0000  0.0000  0.0000
 1533OM     OM1 1533   7.594   1.548   9.131  0.0000  0.0000  0.0000
 1534OM     OM1 1534   0.147   8.475   9.048  0.0000  0.0000  0.0000
 1535OM     OM1 1535   0.083   8.224   9.084  0.0000  0.0000  0.0000
 1536OM     OM1 1536   0.015   8.359   8.870  0.0000  0.0000  0.0000
 1537OM     OM1 1537   9.501   8.408   9.107  0.0000  0.0000  0.0000
 1538OM     OM1 1538   3.397   3.617   9.183  0.0000  0.0000  0.0000
 1539OM     OM1 1539   3.532   3.675   8.965  0.0000  0.0000  0.0000
 1540OM     OM1 1540   3.276   3.603   8.960  0.0000  0.0000  0.0000
 1541OM     OM1 1541   2.088   4.172   8.426  0.0000  0.0000  0.0000
 1542OM     OM1 1542   1.836   4.109   8.409  0.0000  0.0000  0.0000
 1543OM     OM1 1543   4.019   5.256   9.321  0.0000  0.0000  0.0000
 1544OM     OM1 1544   4.182   5.374   9.494  0.0000  0.0000  0.0000
 1545OM     OM1 1545   4.064   5.510   9.299  0.0000  0.0000  0.0000
 1546OM     OM1 1546   4.256   5.338   9.251  0.0000  0.0000  0.0000
 1547OM     OM1 1547   2.217   0.421   0.168  0.0000  0.0000  0.0000
 1548OM     OM1 1548   2.462   0.332   0.187  0.0000  0.0000  0.0000
 1549OM     OM1 1549   2.283   0.193   0.301  0.0000  0.0000  0.0000
 1550OM     OM1 1550   2.282   0.192   0.048  0.0000  0.0000  0.0000
 1551OM     OM1 1551   4.814   2.324   9.429  0.0000  0.0000  0.0000
 1552OM     OM1 1552   4.676   2.112   9.414  0.0000  0.0000  0.0000
 1553OM     OM1 1553   4.807   2.141   0.030  0.0000  0.0000  0.0000
 1554OM     OM1 1554   4.629   2.314   9.597  0.0000  0.0000  0.0000
 1555OM     OM1 1555   0.560   0.303   0.390  0.0000  0.0000  0.0000
 1556OM     OM1 1556   0.795   0.341   0.304  0.0000  0.0000  0.0000
 1557OM     OM1 1557   0.772   0.236   0.538  0.0000  0.0000  0.0000
 1558OM     OM1 1558   0.695   0.091   0.340  0.0000  0.0000  0.0000
 1559OM     OM1 1559   8.120   4.296   9.491  0.0000  0.0000  0.0000
 1560OM     OM1 1560   8.013   4.075   9.533  0.0000  0.0000  0.0000
 1561OM     OM1 1561   8.056   4.221   0.135  0.0000  0.0000  0.0000
 1562OM     OM1 1562   8.263   4.120   0.019  0.0000  0.0000  0.0000
 1563OM     OM1 1563   7.815   7.892   1.100  0.0000  0.0000  0.0000
 1564OM     OM1 1564   7.816   7.991   0.849  0.0000  0.0000  0.0000
 1565OM     OM1 1565   8.034   7.915   0.959  0.0000  0.0000  0.0000
 1566OM     OM1 1566   7.915   8.127   1.058  0.0000  0.0000  0.0000
 1567OM     OM1 1567   5.343   2.073   9.064  0.0000  0.0000  0.0000
 1568OM     OM1 1568   5.599   2.222   8.767  0.0000  0.0000  0.0000
 1569OM     OM1 1569   5.365   2.219   8.850  0.0000  0.0000  0.0000
 1570OM     OM1 1570   5.422   2.330   9.073  0.0000  0.0000  0.0000
 1571OM     OM1 1571   4.969   1.275   0.629  0.0000  0.0000  0.0000
 1572OM     OM1 1572   4.970   1.507   0.726  0.0000  0.0000  0.0000
 1573OM     OM1 1573   5.091   1.458   0.489  0.0000  0.0000  0.0000
 1574OM     OM1 1574   5.201   1.379   0.705  0.0000  0.0000  0.0000
 1575OM     OM1 1575   8.554   0.070   0.704  0.0000  0.0000  0.0000
 1576OM     OM1 1576   8.407   0.149   0.904  0.0000  0.0000  0.0000
 1577OM     OM1 1577   8.420   0.024   0.493  0.0000  0.0000  0.0000
 1578OM     OM1 1578   8.554   0.253   0.521  0.0000  0.0000  0.0000
 1579OM     OM1 1579   6.556   5.446   0.562  0.0000  0.0000  0.0000
 1580OM     OM1 1580   6.307   5.486   0.625  0.0000  0.0000  0.0000
 1581OM     OM1 1581   6.506   5.564   0.793  0.0000  0.0000  0.0000
 1582OM     OM1 1582   6.456   5.685   0.572  0.0000  0.0000  0.0000
 1583OM     OM1 1583   2.825   2.592   1.076  0.0000  0.0000  0.0000
 1584OM     OM1 1584   2.718   2.665   0.846  0.0000  0.0000  0.0000
 1585OM     OM1 1585   2.731   2.843   1.032  0.0000  0.0000  0.0000
 1586OM     OM1 1586   0.907   7.007   9.333  0.0000  0.0000  0.0000
 1587OM     OM1 1587   0.866   6.940   9.575  0.0000  0.0000  0.0000
 1588OM     OM1 1588   0.979   6.713   9.603  0.0000  0.0000  0.0000
 1589OM     OM1 1589   5.320   5.888   0.593  0.0000  0.0000  0.0000
 1590OM     OM1 1590   5.194   6.049   0.416  0.0000  0.0000  0.0000
 1591OM     OM1 1591   5.118   5.800   0.456  0.0000  0.0000  0.0000
 1592OM     OM1 1592   5.082   5.994   0.633  0.0000  0.0000  0.0000
 1593OM     OM1 1593   6.318   5.918   8.833  0.0000  0.0000  0.0000
 1594OM     OM1 1594   6.465   5.713   8.883  0.0000  0.0000  0.0000
 1595OM     OM1 1595   6.332   5.719   8.653  0.0000  0.0000  0.0000
 1596OM     OM1 1596   6.284   3.449   0.369  0.0000  0.0000  0.0000
 1597OM     OM1 1597   6.037   3.410   0.298  0.0000  0.0000  0.0000
 1598OM     OM1 1598   6.209   3.200   0.379  0.0000  0.0000  0.0000
 1599OM     OM1 1599   0.146   6.098   0.201  0.0000  0.0000  0.0000
 1600OM     OM1 1600   0.113   6.349   0.160  0.0000  0.0000  0.0000
 1601OM     OM1 1601   0.352   6.269   0.243  0.0000  0.0000  0.0000
 1602OM     OM1 1602   0.087   0.348   9.013  0.0000  0.0000  0.0000
 1603OM     OM1 1603   0.168   0.254   9.233  0.0000  0.0000  0.0000
 1604OM     OM1 1604   9.571   0.441   9.222  0.0000  0.0000  0.0000
 1605OM     OM1 1605   2.596   6.586   9.605  0.0000  0.0000  0.0000
 1606OM     OM1 1606   2.409   6.725   9.508  0.0000  0.0000  0.0000
 1607OM     OM1 1607   2.642   6.821   9.480  0.0000  0.0000  0.0000
 1608OM     OM1 1608   2.555   6.811   0.120  0.0000  0.0000  0.0000
 1609OM     OM1 1609   8.945   0.392   8.916  0.0000  0.0000  0.0000
 1610OM     OM1 1610   8.720   0.534   8.946  0.0000  0.0000  0.0000
 1611OM     OM1 1611   8.959   0.642   8.996  0.0000  0.0000  0.0000
 1612OM     OM1 1612   9.012   0.146   8.975  0.0000  0.0000  0.0000
 1613OM     OM1 1613   9.180   8.519   0.434  0.0000  0.0000  0.0000
 1614OM     OM1 1614   8.992   8.427   0.268  0.0000  0.0000  0.0000
 1615OM     OM1 1615   8.978   8.666   0.386  0.0000  0.0000  0.0000
 1616OM     OM1 1616   0.038   6.795   8.891  0.0000  0.0000  0.0000
 1617OM     OM1 1617   9.586   6.961   8.692  0.0000  0.0000  0.0000
 1618OM     OM1 1618   0.226   6.908   8.761  0.0000  0.0000  0.0000
 1619OM     OM1 1619   8.698   1.687   9.572  0.0000  0.0000  0.0000
 1620OM     OM1 1620   8.758   1.716   0.216  0.0000  0.0000  0.0000
 1621OM     OM1 1621   8.956   1.546   0.215  0.0000  0.0000  0.0000
 1622OM     OM1 1622   8.981   1.797   0.119  0.0000  0.0000  0.0000
 1623OM     OM1 1623   3.725   5.436   1.226  0.0000  0.0000  0.0000
 1624OM     OM1 1624   3.625   5.444   0.978  0.0000  0.0000  0.0000
 1625OM     OM1 1625   3.632   5.229   1.119  0.0000  0.0000  0.0000
 1626OM     OM1 1626   4.662   5.473   9.365  0.0000  0.0000  0.0000
 1627OM     OM1 1627   4.686   5.585   9.139  0.0000  0.0000  0.0000
 1628OM     OM1 1628   4.503   5.400   9.165  0.0000  0.0000  0.0000
 1629OM     OM1 1629   4.760   5.337   9.172  0.0000  0.0000  0.0000
 1630OM     OM1 1630   1.456   1.970   0.234  0.0000  0.0000  0.0000
 1631OM     OM1 1631   1.515   1.882   0.461  0.0000  0.0000  0.0000
 1632OM     OM1 1632   1.347   2.076   0.456  0.0000  0.0000  0.0000
 1633OM     OM1 1633   1.497   1.635   0.420  0.0000  0.0000  0.0000
 1634OM     OM1 1634   2.817   3.244   1.292  0.0000  0.0000  0.0000
 1635OM     OM1 1635   2.929   3.037   1.190  0.0000  0.0000  0.0000
 1636OM     OM1 1636   2.682   3.074   1.137  0.0000  0.0000  0.0000
 1637OM     OM1 1637   7.238   7.565   0.785  0.0000  0.0000  0.0000
 1638OM     OM1 1638   7.319   7.810   0.737  0.0000  0.0000  0.0000
 1639OM     OM1 1639   7.480   7.617   0.705  0.0000  0.0000  0.0000
 1640OM     OM1 1640   7.376   7.661   0.964  0.0000  0.0000  0.0000
 1641OM     OM1 1641   3.331   4.216   8.511  0.0000  0.0000  0.0000
 1642OM     OM1 1642   3.530   4.314   8.390  0.0000  0.0000  0.0000
 1643OM     OM1 1643   3.505   4.052   8.402  0.0000  0.0000  0.0000
 1644OM     OM1 1644   7.247   3.972   8.314  0.0000  0.0000  0.0000
 1645OM     OM1 1645   7.360   4.185   8.399  0.0000  0.0000  0.0000
 1646OM     OM1 1646   7.501   3.968   8.434  0.0000  0.0000  0.0000
 1647OM     OM1 1647   4.435   7.566   9.087  0.0000  0.0000  0.0000
 1648OM     OM1 1648   4.654   7.191   8.906  0.0000  0.0000  0.0000
 1649OM     OM1 1649   4.543   7.436   8.899  0.0000  0.0000  0.0000
 1650OM     OM1 1650   6.965   2.182   1.141  0.0000  0.0000  0.0000
 1651OM     OM1 1651   6.771   2.272   1.277  0.0000  0.0000  0.0000
 1652OM     OM1 1652   6.846   7.036   8.318  0.0000  0.0000  0.0000
 1653OM     OM1 1653   7.010   7.173   8.467  0.0000  0.0000  0.0000
 1654OM     OM1 1654   6.791   7.276   8.386  0.0000  0.0000  0.0000
 1655OM     OM1 1655   6.670   6.842   8.357  0.0000  0.0000  0.0000
 1656OM     OM1 1656   1.011   3.894   0.589  0.0000  0.0000  0.0000
 1657OM     OM1 1657   0.990   3.916   0.842  0.0000  0.0000  0.0000
 1658OM     OM1 1658   1.219   3.854   0.752  0.0000  0.0000  0.0000
 1659OM     OM1 1659   1.023   3.678   0.743  0.0000  0.0000  0.0000
 1660OM     OM1 1660   4.493   5.654   0.756  0.0000  0.0000  0.0000
 1661OM     OM1 1661   4.298   5.821   0.812  0.0000  0.0000  0.0000
 1662OM     OM1 1662   4.244   5.579   0.731  0.0000  0.0000  0.0000
 1663OM     OM1 1663   4.342   5.621   0.972  0.0000  0.0000  0.0000
 1664OM     OM1 1664   0.561   5.573   9.233  0.0000  0.0000  0.0000
 1665OM     OM1 1665   0.397   5.414   9.354  0.0000  0.0000  0.0000
 1666OM     OM1 1666   0.429   5.405   9.089  0.0000  0.0000  0.0000
 1667OM     OM1 1667   0.302   5.606   9.192  0.0000  0.0000  0.0000
 1668OM     OM1 1668   5.170   3.768   0.054  0.0000  0.0000  0.0000
 1669OM     OM1 1669   5.195   4.001   9.548  0.0000  0.0000  0.0000
 1670OM     OM1 1670   5.146   3.805   9.394  0.0000  0.0000  0.0000
 1671OM     OM1 1671   4.956   3.880   9.557  0.0000  0.0000  0.0000
 1672OM     OM1 1672   8.754   1.582   9.325  0.0000  0.0000  0.0000
 1673OM     OM1 1673   8.536   1.709   9.381  0.0000  0.0000  0.0000
 1674OM     OM1 1674   3.136   2.514   0.210  0.0000  0.0000  0.0000
 1675OM     OM1 1675   3.060   2.320   0.041  0.0000  0.0000  0.0000
 1676OM     OM1 1676   3.276   2.288   0.203  0.0000  0.0000  0.0000
 1677OM     OM1 1677   3.033   2.296   0.293  0.0000  0.0000  0.0000
 1678OM     OM1 1678   7.343   1.443   0.227  0.0000  0.0000  0.0000
 1679OM     OM1 1679   7.420   1.313   0.014  0.0000  0.0000  0.0000
 1680OM     OM1 1680   7.387   1.565   9.602  0.0000  0.0000  0.0000
 1681OM     OM1 1681   7.630   7.104   8.432  0.0000  0.0000  0.0000
 1682OM     OM1 1682   7.461   7.283   8.354  0.0000  0.0000  0.0000
 1683OM     OM1 1683   7.465   7.057   8.249  0.0000  0.0000  0.0000
 1684OM     OM1 1684   4.476   7.165   8.354  0.0000  0.0000  0.0000
 1685OM     OM1 1685   4.060   6.935   8.244  0.0000  0.0000  0.0000
 1686OM     OM1 1686   9.074   0.236   1.161  0.0000  0.0000  0.0000
 1687OM     OM1 1687   9.315   0.253   1.095  0.0000  0.0000  0.0000
 1688OM     OM1 1688   9.282   0.002   1.169  0.0000  0.0000  0.0000
 1689OM     OM1 1689   1.355   0.576   8.357  0.0000  0.0000  0.0000
 1690OM     OM1 1690   1.523   0.699   8.504  0.0000  0.0000  0.0000
 1691OM     OM1 1691   1.317   0.823   8.445  0.0000  0.0000  0.0000
 1692OM     OM1 1692   9.071   4.826   0.709  0.0000  0.0000  0.0000
 1693OM     OM1 1693   9.030   4.658   0.509  0.0000  0.0000  0.0000
 1694OM     OM1 1694   9.112   4.577   0.745  0.0000  0.0000  0.0000
 1695OM     OM1 1695   8.861   4.656   0.710  0.0000  0.0000  0.0000
 1696OM     OM1 1696   1.219   9.511   8.552  0.0000  0.0000  0.0000
 1697OM     OM1 1697   1.463   9.477   8.480  0.0000  0.0000  0.0000
 1698OM     OM1 1698   1.507   9.235   8.571  0.0000  0.0000  0.0000
 1699OM     OM1 1699   1.526   9.290   8.316  0.0000  0.0000  0.0000
 1700OM     OM1 1700   8.187   5.465   8.595  0.0000  0.0000  0.0000
 1701OM     OM1 1701   8.176   5.426   8.336  0.0000  0.0000  0.0000
 1702OM     OM1 1702   8.145   5.230   8.498  0.0000  0.0000  0.0000
 1703OM     OM1 1703   7.955   5.415   8.466  0.0000  0.0000  0.0000
 1704OM     OM1 1704   1.743   4.104   8.900  0.0000  0.0000  0.0000
 1705OM     OM1 1705   1.955   4.046   8.745  0.0000  0.0000  0.0000
 1706OM     OM1 1706   1.830   4.263   8.718  0.0000  0.0000  0.0000
 1707OM     OM1 1707   1.718   4.049   8.637  0.0000  0.0000  0.0000
 1708OM     OM1 1708   6.829   0.384   9.312  0.0000  0.0000  0.0000
 1709OM     OM1 1709   6.674   0.378   9.515  0.0000  0.0000  0.0000
 1710OM     OM1 1710   6.577   0.438   9.292  0.0000  0.0000  0.0000
 1711OM     OM1 1711   8.022   4.782   1.199  0.0000  0.0000  0.0000
 1712OM     OM1 1712   8.112   5.034   1.240  0.0000  0.0000  0.0000
 1713OM     OM1 1713   7.965   4.610   1.005  0.0000  0.0000  0.0000
 1714OM     OM1 1714   8.207   4.636   1.057  0.0000  0.0000  0.0000
 1715OM     OM1 1715   6.768   0.777   8.424  0.0000  0.0000  0.0000
 1716OM     OM1 1716   6.593   0.912   8.578  0.0000  0.0000  0.0000
 1717OM     OM1 1717   6.553   0.888   8.329  0.0000  0.0000  0.0000
 1718OM     OM1 1718   9.523   7.661   8.370  0.0000  0.0000  0.0000
 1719OM     OM1 1719   0.369   8.379   8.977  0.0000  0.0000  0.0000
 1720OM     OM1 1720   0.712   8.269   8.732  0.0000  0.0000  0.0000
 1721OM     OM1 1721   0.449   8.269   8.688  0.0000  0.0000  0.0000
 1722OM     OM1 1722   0.537   8.196   8.910  0.0000  0.0000  0.0000
 1723OM     OM1 1723   2.719   8.516   0.325  0.0000  0.0000  0.0000
 1724OM     OM1 1724   2.560   8.615   0.136  0.0000  0.0000  0.0000
 1725OM     OM1 1725   2.750   8.762   0.244  0.0000  0.0000  0.0000
 1726OM     OM1 1726   2.524   8.698   0.367  0.0000  0.0000  0.0000
 1727OM     OM1 1727   4.339   6.280   1.266  0.0000  0.0000  0.0000
 1728OM     OM1 1728   8.778   6.824   9.210  0.0000  0.0000  0.0000
 1729OM     OM1 1729   9.022   6.775   9.313  0.0000  0.0000  0.0000
 1730OM     OM1 1730   8.834   6.854   9.467  0.0000  0.0000  0.0000
 1731OM     OM1 1731   7.622   2.191   8.985  0.0000  0.0000  0.0000
 1732OM     OM1 1732   7.811   2.278   9.133  0.0000  0.0000  0.0000
 1733OM     OM1 1733   7.551   2.273   9.222  0.0000  0.0000  0.0000
 1734OM     OM1 1734   7.628   2.444   9.037  0.0000  0.0000  0.0000
 1735OM     OM1 1735   1.936   8.534   1.117  0.0000  0.0000  0.0000
 1736OM     OM1 1736   2.101   8.691   1.234  0.0000  0.0000  0.0000
 1737OM     OM1 1737   1.848   8.731   1.270  0.0000  0.0000  0.0000
 1738OM     OM1 1738   3.865   5.965   9.150  0.0000  0.0000  0.0000
 1739OM     OM1 1739   3.752   5.751   9.215  0.0000  0.0000  0.0000
 1740OM     OM1 1740   4.054   6.017   9.315  0.0000  0.0000  0.0000
 1741OM     OM1 1741   3.746   5.894   9.436  0.0000  0.0000  0.0000
 1742OM     OM1 1742   4.889   7.878   1.322  0.0000  0.0000  0.0000
 1743OM     OM1 1743   6.911   4.004   9.419  0.0000  0.0000  0.0000
 1744OM     OM1 1744   7.060   4.206   9.339  0.0000  0.0000  0.0000
 1745OM     OM1 1745   6.806   4.204   9.296  0.0000  0.0000  0.0000
 1746OM     OM1 1746   6.948   4.044   9.158  0.0000  0.0000  0.0000
 1747OM     OM1 1747   8.230   0.717   0.193  0.0000  0.0000  0.0000
 1748OM     OM1 1748   8.221   0.978   0.246  0.0000  0.0000  0.0000
 1749OM     OM1 1749   8.545   0.993   9.499  0.0000  0.0000  0.0000
 1750OM     OM1 1750   9.030   2.331   1.152  0.0000  0.0000  0.0000
 1751OM     OM1 1751   0.333   9.555   8.321  0.0000  0.0000  0.0000
 1752OM     OM1 1752   0.099   9.424   8.365  0.0000  0.0000  0.0000
 1753OM     OM1 1753   0.316   9.303   8.397  0.0000  0.0000  0.0000
 1754OM     OM1 1754   5.410   1.757   0.946  0.0000  0.0000  0.0000
 1755OM     OM1 1755   5.376   1.896   1.166  0.0000  0.0000  0.0000
 1756OM     OM1 1756   5.465   1.641   1.170  0.0000  0.0000  0.0000
 1757OM     OM1 1757   5.610   1.843   1.092  0.0000  0.0000  0.0000
 1758OM     OM1 1758   0.590   8.895   8.382  0.0000  0.0000  0.0000
 1759OM     OM1 1759   0.394   9.063   8.423  0.0000  0.0000  0.0000
 1760OM     OM1 1760   0.640   9.154   8.383  0.0000  0.0000  0.0000
 1761OM     OM1 1761   1.877   2.966   8.745  0.0000  0.0000  0.0000
 1762OM     OM1 1762   1.870   2.815   8.950  0.0000  0.0000  0.0000
 1763OM     OM1 1763   1.682   2.780   8.770  0.0000  0.0000  0.0000
 1764OM     OM1 1764   4.686   3.862   9.546  0.0000  0.0000  0.0000
 1765OM     OM1 1765   4.593   3.915   0.177  0.0000  0.0000  0.0000
 1766OM     OM1 1766   4.694   4.100   0.028  0.0000  0.0000  0.0000
 1767OM     OM1 1767   4.449   3.975   9.579  0.0000  0.0000  0.0000
 1768OM     OM1 1768   9.259   5.935   0.156  0.0000  0.0000  0.0000
 1769OM     OM1 1769   9.398   6.023   9.558  0.0000  0.0000  0.0000
 1770OM     OM1 1770   9.296   6.196   0.119  0.0000  0.0000  0.0000
 1771OM     OM1 1771   9.493   6.052   0.196  0.0000  0.0000  0.0000
 1772OM     OM1 1772   5.078   1.986   8.296  0.0000  0.0000  0.0000
 1773OM     OM1 1773   5.129   2.116   8.520  0.0000  0.0000  0.0000
 1774OM     OM1 1774   4.957   2.204   8.336  0.0000  0.0000  0.0000
 1775OM     OM1 1775   4.906   1.987   8.492  0.0000  0.0000  0.0000
 1776OM     OM1 1776   1.878   2.237   1.101  0.0000  0.0000  0.0000
 1777OM     OM1 1777   2.058   2.071   1.156  0.0000  0.0000  0.0000
 1778OM     OM1 1778   0.545   6.444   0.201  0.0000  0.0000  0.0000
 1779OM     OM1 1779   0.481   6.365   0.448  0.0000  0.0000  0.0000
 1780OM     OM1 1780   0.614   6.215   0.292  0.0000  0.0000  0.0000
 1781OM     OM1 1781   7.141   6.093   8.519  0.0000  0.0000  0.0000
 1782OM     OM1 1782   7.336   6.088   8.697  0.0000  0.0000  0.0000
 1783OM     OM1 1783   7.249   6.310   8.597  0.0000  0.0000  0.0000
 1784OM     OM1 1784   7.092   6.160   8.762  0.0000  0.0000  0.0000
 1785OM     OM1 1785   0.457   0.785   0.414  0.0000  0.0000  0.0000
 1786OM     OM1 1786   0.472   0.965   0.232  0.0000  0.0000  0.0000
 1787OM     OM1 1787   0.234   0.862   0.297  0.0000  0.0000  0.0000
 1788OM     OM1 1788   5.057   0.827   8.767  0.0000  0.0000  0.0000
 1789OM     OM1 1789   4.960   0.792   8.995  0.0000  0.0000  0.0000
 1790OM     OM1 1790   5.180   0.929   8.983  0.0000  0.0000  0.0000
 1791OM     OM1 1791   4.954   1.037   8.895  0.0000  0.0000  0.0000
 1792OM     OM1 1792   6.513   2.088   0.745  0.0000  0.0000  0.0000
 1793OM     OM1 1793   6.610   1.992   0.971  0.0000  0.0000  0.0000
 1794OM     OM1 1794   6.657   2.246   0.908  0.0000  0.0000  0.0000
 1795OM     OM1 1795   5.591   1.094   0.528  0.0000  0.0000  0.0000
 1796OM     OM1 1796   5.579   1.122   0.266  0.0000  0.0000  0.0000
 1797OM     OM1 1797   5.514   1.320   0.417  0.0000  0.0000  0.0000
 1798OM     OM1 1798   5.764   1.247   0.398  0.0000  0.0000  0.0000
 1799OM     OM1 1799   2.979   1.251   8.950  0.0000  0.0000  0.0000
 1800OM     OM1 1800   2.948   1.503   9.045  0.0000  0.0000  0.0000
 1801OM     OM1 1801   3.077   1.452   8.817  0.0000  0.0000  0.0000
 1802OM     OM1 1802   3.175   1.387   9.043  0.0000  0.0000  0.0000
 1803OM     OM1 1803   5.803   9.418   0.461  0.0000  0.0000  0.0000
 1804OM     OM1 1804   5.918   0.038   0.523  0.0000  0.0000  0.0000
 1805OM     OM1 1805   5.774   9.516   0.706  0.0000  0.0000  0.0000
 1806OM     OM1 1806   6.005   9.428   0.632  0.0000  0.0000  0.0000
 1807OM     OM1 1807   4.698   3.224   1.206  0.0000  0.0000  0.0000
 1808OM     OM1 1808   4.480   3.351   1.154  0.0000  0.0000  0.0000
 1809OM     OM1 1809   7.275   0.921   0.164  0.0000  0.0000  0.0000
 1810OM     OM1 1810   7.537   0.809   0.197  0.0000  0.0000  0.0000
 1811OM     OM1 1811   7.313   0.683   0.250  0.0000  0.0000  0.0000
 1812OM     OM1 1812   5.298   1.848   8.947  0.0000  0.0000  0.0000
 1813OM     OM1 1813   5.454   1.855   9.163  0.0000  0.0000  0.0000
 1814OM     OM1 1814   5.194   1.906   9.181  0.0000  0.0000  0.0000
 1815OM     OM1 1815   9.569   6.548   8.860  0.0000  0.0000  0.0000
 1816OM     OM1 1816   0.100   6.519   8.649  0.0000  0.0000  0.0000
 1817OM     OM1 1817   0.007   6.309   8.781  0.0000  0.0000  0.0000
 1818OM     OM1 1818   9.437   6.459   8.657  0.0000  0.0000  0.0000
 1819OM     OM1 1819   4.124   1.198   0.346  0.0000  0.0000  0.0000
 1820OM     OM1 1820   4.030   1.425   0.269  0.0000  0.0000  0.0000
 1821OM     OM1 1821   4.216   1.309   0.123  0.0000  0.0000  0.0000
 1822OM     OM1 1822   3.862   2.337   9.158  0.0000  0.0000  0.0000
 1823OM     OM1 1823   3.901   2.144   9.341  0.0000  0.0000  0.0000
 1824OM     OM1 1824   3.665   2.264   9.305  0.0000  0.0000  0.0000
 1825OM     OM1 1825   6.028   1.016   8.983  0.0000  0.0000  0.0000
 1826OM     OM1 1826   5.973   1.091   8.745  0.0000  0.0000  0.0000
 1827OM     OM1 1827   6.197   1.173   8.838  0.0000  0.0000  0.0000
 1828OM     OM1 1828   6.160   0.917   8.779  0.0000  0.0000  0.0000
 1829OM     OM1 1829   8.776   2.667   1.297  0.0000  0.0000  0.0000
 1830OM     OM1 1830   8.846   2.925   1.319  0.0000  0.0000  0.0000
 1831OM     OM1 1831   8.622   2.861   1.209  0.0000  0.0000  0.0000
 1832OM     OM1 1832   5.779   8.243   9.314  0.0000  0.0000  0.0000
 1833OM     OM1 1833   5.794   8.414   9.515  0.0000  0.0000  0.0000
 1834OM     OM1 1834   5.999   8.366   9.361  0.0000  0.0000  0.0000
 1835OM     OM1 1835   5.787   8.490   9.257  0.0000  0.0000  0.0000
 1836OM     OM1 1836   9.401   9.599   8.980  0.0000  0.0000  0.0000
 1837OM     OM1 1837   9.336   9.378   9.104  0.0000  0.0000  0.0000
 1838OM     OM1 1838   9.186   9.600   9.112  0.0000  0.0000  0.0000
 1839OM     OM1 1839   7.465   3.586   0.569  0.0000  0.0000  0.0000
 1840OM     OM1 1840   7.517   3.637   0.317  0.0000  0.0000  0.0000
 1841OM     OM1 1841   7.555   3.815   0.496  0.0000  0.0000  0.0000
 1842OM     OM1 1842   7.715   3.593   0.491  0.0000  0.0000  0.0000
 1843OM     OM1 1843   6.653   4.171   0.625  0.0000  0.0000  0.0000
 1844OM     OM1 1844   6.809   4.385   0.636  0.0000  0.0000  0.0000
 1845OM     OM1 1845   6.595   4.398   0.499  0.0000  0.0000  0.0000
 1846OM     OM1 1846   6.577   4.371   0.763  0.0000  0.0000  0.0000
 1847OM     OM1 1847   8.196   6.066   0.334  0.0000  0.0000  0.0000
 1848OM     OM1 1848   8.169   6.311   0.401  0.0000  0.0000  0.0000
 1849OM     OM1 1849   8.102   6.241   0.156  0.0000  0.0000  0.0000
 1850OM     OM1 1850   8.360   6.235   0.240  0.0000  0.0000  0.0000
 1851OM     OM1 1851   5.361   7.138   9.469  0.0000  0.0000  0.0000
 1852OM     OM1 1852   5.265   7.224   0.086  0.0000  0.0000  0.0000
 1853OM     OM1 1853   5.315   6.974   0.067  0.0000  0.0000  0.0000
 1854OM     OM1 1854   5.108   7.072   9.553  0.0000  0.0000  0.0000
 1855OM     OM1 1855   5.495   5.218   8.716  0.0000  0.0000  0.0000
 1856OM     OM1 1856   5.296   5.060   8.759  0.0000  0.0000  0.0000
 1857OM     OM1 1857   5.255   5.317   8.754  0.0000  0.0000  0.0000
 1858OM     OM1 1858   6.345   2.300   1.387  0.0000  0.0000  0.0000
 1859OM     OM1 1859   0.553   7.503   0.795  0.0000  0.0000  0.0000
 1860OM     OM1 1860   0.682   7.637   0.978  0.0000  0.0000  0.0000
 1861OM     OM1 1861   0.729   7.387   0.955  0.0000  0.0000  0.0000
 1862OM     OM1 1862   0.804   7.532   0.754  0.0000  0.0000  0.0000
 1863OM     OM1 1863   5.829   0.722   8.368  0.0000  0.0000  0.0000
 1864OM     OM1 1864   5.780   0.941   8.264  0.0000  0.0000  0.0000
 1865OM     OM1 1865   6.032   0.865   8.293  0.0000  0.0000  0.0000
 1866OM     OM1 1866   3.021   7.720   1.122  0.0000  0.0000  0.0000
 1867OM     OM1 1867   3.227   7.601   1.212  0.0000  0.0000  0.0000
 1868OM     OM1 1868   6.896   1.998   9.283  0.0000  0.0000  0.0000
 1869OM     OM1 1869   6.681   2.117   9.378  0.0000  0.0000  0.0000
 1870OM     OM1 1870   6.882   2.256   9.285  0.0000  0.0000  0.0000
 1871OM     OM1 1871   6.897   2.128   9.512  0.0000  0.0000  0.0000
 1872OM     OM1 1872   3.876   7.923   0.454  0.0000  0.0000  0.0000
 1873OM     OM1 1873   3.915   7.671   0.514  0.0000  0.0000  0.0000
 1874OM     OM1 1874   3.917   7.856   0.706  0.0000  0.0000  0.0000
 1875OM     OM1 1875   3.699   7.797   0.590  0.0000  0.0000  0.0000
 1876OM     OM1 1876   2.596   5.993   1.125  0.0000  0.0000  0.0000
 1877OM     OM1 1877   2.702   5.847   1.308  0.0000  0.0000  0.0000
 1878OM     OM1 1878   2.851   5.978   1.124  0.0000  0.0000  0.0000
 1879OM     OM1 1879   8.137   3.545   0.749  0.0000  0.0000  0.0000
 1880OM     OM1 1880   8.110   3.787   0.667  0.0000  0.0000  0.0000
 1881OM     OM1 1881   8.187   3.729   0.918  0.0000  0.0000  0.0000
 1882OM     OM1 1882   8.351   3.710   0.721  0.0000  0.0000  0.0000
 1883OM     OM1 1883   5.398   5.340   9.439  0.0000  0.0000  0.0000
 1884OM     OM1 1884   5.253   5.438   9.221  0.0000  0.0000  0.0000
 1885OM     OM1 1885   5.509   5.429   9.228  0.0000  0.0000  0.0000
 1886OM     OM1 1886   1.924   4.265   9.382  0.0000  0.0000  0.0000
 1887OM     OM1 1887   1.898   4.510   9.314  0.0000  0.0000  0.0000
 1888OM     OM1 1888   2.091   4.442   9.485  0.0000  0.0000  0.0000
 1889OM     OM1 1889   5.484   7.551   1.267  0.0000  0.0000  0.0000
 1890OM     OM1 1890   5.268   7.578   1.114  0.0000  0.0000  0.0000
 1891OM     OM1 1891   5.425   7.777   1.149  0.0000  0.0000  0.0000
 1892OM     OM1 1892   1.039   0.342   0.258  0.0000  0.0000  0.0000
 1893OM     OM1 1893   1.271   0.300   0.353  0.0000  0.0000  0.0000
 1894OM     OM1 1894   0.912   0.573   0.316  0.0000  0.0000  0.0000
 1895OM     OM1 1895   1.065   0.373   0.509  0.0000  0.0000  0.0000
 1896OM     OM1 1896   8.156   8.201   8.258  0.0000  0.0000  0.0000
 1897OM     OM1 1897   8.286   8.200   8.479  0.0000  0.0000  0.0000
 1898OM     OM1 1898   8.329   4.725   9.411  0.0000  0.0000  0.0000
 1899OM     OM1 1899   8.256   4.966   9.342  0.0000  0.0000  0.0000
 1900OM     OM1 1900   8.297   4.787   9.155  0.0000  0.0000  0.0000
 1901OM     OM1 1901   8.498   4.875   9.278  0.0000  0.0000  0.0000
 1902OM     OM1 1902   7.910   1.630   0.547  0.0000  0.0000  0.0000
 1903OM     OM1 1903   7.522   1.412   0.649  0.0000  0.0000  0.0000
 1904OM     OM1 1904   7.840   1.325   0.745  0.0000  0.0000  0.0000
 1905OM     OM1 1905   7.675   1.625   0.648  0.0000  0.0000  0.0000
 1906OM     OM1 1906   6.250   8.484   0.109  0.0000  0.0000  0.0000
 1907OM     OM1 1907   6.051   8.488   0.269  0.0000  0.0000  0.0000
 1908OM     OM1 1908   6.273   8.620   0.327  0.0000  0.0000  0.0000
 1909OM     OM1 1909   6.275   8.370   0.353  0.0000  0.0000  0.0000
 1910OM     OM1 1910   8.150   0.299   0.428  0.0000  0.0000  0.0000
 1911OM     OM1 1911   8.351   0.238   0.276  0.0000  0.0000  0.0000
 1912OM     OM1 1912   8.438   0.296   0.050  0.0000  0.0000  0.0000
 1913OM     OM1 1913   8.104   0.216   0.188  0.0000  0.0000  0.0000
 1914OM     OM1 1914   5.836   7.040   0.072  0.0000  0.0000  0.0000
 1915OM     OM1 1915   5.898   7.232   0.232  0.0000  0.0000  0.0000
 1916OM     OM1 1916   5.725   7.023   0.296  0.0000  0.0000  0.0000
 1917OM     OM1 1917   5.664   7.233   0.145  0.0000  0.0000  0.0000
 1918OM     OM1 1918   7.687   2.744   0.971  0.0000  0.0000  0.0000
 1919OM     OM1 1919   7.495   2.581   0.912  0.0000  0.0000  0.0000
 1920OM     OM1 1920   1.153   4.035   1.178  0.0000  0.0000  0.0000
 1921OM     OM1 1921   0.929   4.037   1.307  0.0000  0.0000  0.0000
 1922OM     OM1 1922   1.003   3.828   1.167  0.0000  0.0000  0.0000
 1923OM     OM1 1923   0.920   4.048   1.049  0.0000  0.0000  0.0000
 1924OM     OM1 1924   0.947   8.010   8.746  0.0000  0.0000  0.0000
 1925OM     OM1 1925   1.013   7.865   8.548  0.0000  0.0000  0.0000
 1926OM     OM1 1926   1.251   7.967   8.484  0.0000  0.0000  0.0000
 1927OM     OM1 1927   1.498   7.994   8.526  0.0000  0.0000  0.0000
 1928OM     OM1 1928   4.437   9.162   0.927  0.0000  0.0000  0.0000
 1929OM     OM1 1929   4.260   8.915   1.185  0.0000  0.0000  0.0000
 1930OM     OM1 1930   4.247   8.892   0.600  0.0000  0.0000  0.0000
 1931OM     OM1 1931   4.229   9.149   1.069  0.0000  0.0000  0.0000
 1932OM     OM1 1932   7.234   7.133   0.008  0.0000  0.0000  0.0000
 1933OM     OM1 1933   7.462   7.226   0.118  0.0000  0.0000  0.0000
 1934OM     OM1 1934   7.313   7.387   9.587  0.0000  0.0000  0.0000
 1935OM     OM1 1935   7.225   7.305   0.206  0.0000  0.0000  0.0000
 1936OM     OM1 1936   1.450   7.574   9.334  0.0000  0.0000  0.0000
 1937OM     OM1 1937   1.450   7.615   9.083  0.0000  0.0000  0.0000
 1938OM     OM1 1938   1.540   7.387   9.197  0.0000  0.0000  0.0000
 1939OM     OM1 1939   3.113   8.233   8.191  0.0000  0.0000  0.0000
 1940OM     OM1 1940   2.642   9.500   8.940  0.0000  0.0000  0.0000
 1941OM     OM1 1941   2.407   9.563   9.011  0.0000  0.0000  0.0000
 1942OM     OM1 1942   2.548   9.431   9.185  0.0000  0.0000  0.0000
 1943OM     OM1 1943   2.319   2.088   1.114  0.0000  0.0000  0.0000
 1944OM     OM1 1944   2.481   2.067   1.322  0.0000  0.0000  0.0000
 1945OM     OM1 1945   2.494   1.891   1.140  0.0000  0.0000  0.0000
 1946OM     OM1 1946   4.231   8.861   8.762  0.0000  0.0000  0.0000
 1947OM     OM1 1947   4.564   8.763   8.927  0.0000  0.0000  0.0000
 1948OM     OM1 1948   4.226   8.657   8.592  0.0000  0.0000  0.0000
 1949OM     OM1 1949   0.862   3.676   8.437  0.0000  0.0000  0.0000
 1950OM     OM1 1950   1.005   3.797   8.604  0.0000  0.0000  0.0000
 1951OM     OM1 1951   0.846   3.946   8.467  0.0000  0.0000  0.0000
 1952OM     OM1 1952   4.346   1.811   0.234  0.0000  0.0000  0.0000
 1953OM     OM1 1953   4.295   1.733   9.593  0.0000  0.0000  0.0000
 1954OM     OM1 1954   4.113   1.861   0.137  0.0000  0.0000  0.0000
 1955OM     OM1 1955   4.165   1.622   0.179  0.0000  0.0000  0.0000
 1956OM     OM1 1956   5.982   8.856   8.655  0.0000  0.0000  0.0000
 1957OM     OM1 1957   5.801   8.674   8.662  0.0000  0.0000  0.0000
 1958OM     OM1 1958   5.759   8.876   8.499  0.0000  0.0000  0.0000
 1959OM     OM1 1959   5.745   8.918   8.749  0.0000  0.0000  0.0000
 1960OM     OM1 1960   7.940   0.266   8.416  0.0000  0.0000  0.0000
 1961OM     OM1 1961   7.753   0.354   8.574  0.0000  0.0000  0.0000
 1962OM     OM1 1962   7.743   0.108   8.452  0.0000  0.0000  0.0000
 1963OM     OM1 1963   7.888   0.147   8.651  0.0000  0.0000  0.0000
 1964OM     OM1 1964   1.343   1.328   9.153  0.0000  0.0000  0.0000
 1965OM     OM1 1965   1.501   1.249   9.337  0.0000  0.0000  0.0000
 1966OM     OM1 1966   1.459   1.499   9.319  0.0000  0.0000  0.0000
 1967OM     OM1 1967   1.601   1.395   9.133  0.0000  0.0000  0.0000
 1968OM     OM1 1968   0.537   3.924   1.067  0.0000  0.0000  0.0000
 1969OM     OM1 1969   0.331   3.936   1.246  0.0000  0.0000  0.0000
 1970OM     OM1 1970   0.508   3.744   1.246  0.0000  0.0000  0.0000
 1971OM     OM1 1971   0.429   7.147   1.161  0.0000  0.0000  0.0000
 1972OM     OM1 1972   0.180   7.067   1.172  0.0000  0.0000  0.0000
 1973OM     OM1 1973   0.253   7.243   0.989  0.0000  0.0000  0.0000
 1974OM     OM1 1974   0.191   7.130   0.770  0.0000  0.0000  0.0000
 1975OM     OM1 1975   6.763   4.379   9.109  0.0000  0.0000  0.0000
 1976OM     OM1 1976   6.690   4.749   9.155  0.0000  0.0000  0.0000
 1977OM     OM1 1977   6.883   4.598   9.053  0.0000  0.0000  0.0000
 1978OM     OM1 1978   6.922   4.732   9.272  0.0000  0.0000  0.0000
 1979OM     OM1 1979   8.706   1.917   1.023  0.0000  0.0000  0.0000
 1980OM     OM1 1980   8.943   1.890   1.143  0.0000  0.0000  0.0000
 1981OM     OM1 1981   8.931   1.882   0.884  0.0000  0.0000  0.0000
 1982OM     OM1 1982   8.884   2.106   0.999  0.0000  0.0000  0.0000
 1983OM     OM1 1983   6.823   7.359   1.040  0.0000  0.0000  0.0000
 1984OM     OM1 1984   6.790   7.203   1.248  0.0000  0.0000  0.0000
 1985OM     OM1 1985   6.583   7.312   1.111  0.0000  0.0000  0.0000
 1986OM     OM1 1986   6.737   7.450   1.282  0.0000  0.0000  0.0000
 1987OM     OM1 1987   5.586   0.994   8.445  0.0000  0.0000  0.0000
 1988OM     OM1 1988   5.541   0.815   8.639  0.0000  0.0000  0.0000
 1989OM     OM1 1989   5.723   1.148   8.692  0.0000  0.0000  0.0000
 1990OM     OM1 1990   5.476   1.060   8.669  0.0000  0.0000  0.0000
 1991OM     OM1 1991   8.810   8.465   1.119  0.0000  0.0000  0.0000
 1992OM     OM1 1992   8.615   8.637   1.096  0.0000  0.0000  0.0000
 1993OM     OM1 1993   8.851   8.711   1.206  0.0000  0.0000  0.0000
 1994OM     OM1 1994   8.843   8.662   0.954  0.0000  0.0000  0.0000
 1995OM     OM1 1995   6.440   6.982   9.235  0.0000  0.0000  0.0000
 1996OM     OM1 1996   6.579   7.114   9.394  0.0000  0.0000  0.0000
 1997OM     OM1 1997   6.693   6.905   9.270  0.0000  0.0000  0.0000
 1998OM     OM1 1998   6.650   7.121   9.140  0.0000  0.0000  0.0000
 1999OM     OM1 1999   6.444   3.060   9.081  0.0000  0.0000  0.0000
 2000OM     OM1 2000   6.287   2.909   8.936  0.0000  0.0000  0.0000
 2001OM     OM1 2001   6.523   2.832   9.009  0.0000  0.0000  0.0000
 2002OM     OM1 2002   6.506   3.024   8.829  0.0000  0.0000  0.0000
 2003OM     OM1 2003   3.320   0.063   9.243  0.0000  0.0000  0.0000
 2004OM     OM1 2004   3.532   0.098   9.399  0.0000  0.0000  0.0000
 2005OM     OM1 2005   3.527   0.154   9.140  0.0000  0.0000  0.0000
 2006OM     OM1 2006   4.158   7.709   0.512  0.0000  0.0000  0.0000
 2007OM     OM1 2007   4.047   7.622   0.286  0.0000  0.0000  0.0000
 2008OM     OM1 2008   4.094   7.463   0.488  0.0000  0.0000  0.0000
 2009OM     OM1 2009   0.255   7.989   8.308  0.0000  0.0000  0.0000
 2010OM     OM1 2010   2.017   8.627   0.878  0.0000  0.0000  0.0000
 2011OM     OM1 2011   1.938   8.706   0.633  0.0000  0.0000  0.0000
 2012OM     OM1 2012   1.910   8.856   0.840  0.0000  0.0000  0.0000
 2013OM     OM1 2013   2.142   8.823   0.747  0.0000  0.0000  0.0000
 2014OM     OM1 2014   1.235   3.689   8.403  0.0000  0.0000  0.0000
 2015OM     OM1 2015   1.472   3.749   8.492  0.0000  0.0000  0.0000
 2016OM     OM1 2016   1.350   3.541   8.595  0.0000  0.0000  0.0000
 2017OM     OM1 2017   1.255   3.765   8.651  0.0000  0.0000  0.0000
 2018OM     OM1 2018   1.960   1.738   1.184  0.0000  0.0000  0.0000
 2019OM     OM1 2019   2.188   1.680   1.297  0.0000  0.0000  0.0000
 2020OM     OM1 2020   7.921   7.429   8.506  0.0000  0.0000  0.0000
 2021OM     OM1 2021   7.952   7.583   8.298  0.0000  0.0000  0.0000
 2022OM     OM1 2022   8.144   7.410   8.371  0.0000  0.0000  0.0000
 2023OM     OM1 2023   6.258   0.279   8.632  0.0000  0.0000  0.0000
 2024OM     OM1 2024   5.999   0.269   8.659  0.0000  0.0000  0.0000
 2025OM     OM1 2025   6.122   0.093   8.504  0.0000  0.0000  0.0000
 2026OM     OM1 2026   6.107   0.332   8.422  0.0000  0.0000  0.0000
 2027OM     OM1 2027   8.542   1.423   1.353  0.0000  0.0000  0.0000
 2028OM     OM1 2028   8.416   1.388   1.129  0.0000  0.0000  0.0000
 2029OM     OM1 2029   5.639   7.517   8.541  0.0000  0.0000  0.0000
 2030OM     OM1 2030   5.877   7.433   8.606  0.0000  0.0000  0.0000
 2031OM     OM1 2031   5.829   7.507   8.366  0.0000  0.0000  0.0000
 2032OM     OM1 2032   5.825   7.687   8.569  0.0000  0.0000  0.0000
 2033OM     OM1 2033   1.636   4.497   8.761  0.0000  0.0000  0.0000
 2034OM     OM1 2034   1.841   4.483   8.591  0.0000  0.0000  0.0000
 2035OM     OM1 2035   1.685   4.684   8.581  0.0000  0.0000  0.0000
 2036OM     OM1 2036   1.597   4.432   8.522  0.0000  0.0000  0.0000
 2037OM     OM1 2037   1.268   0.704   0.166  0.0000  0.0000  0.0000
 2038OM     OM1 2038   1.391   0.778   0.377  0.0000  0.0000  0.0000
 2039OM     OM1 2039   1.400   0.521   0.306  0.0000  0.0000  0.0000
 2040OM     OM1 2040   1.530   0.697   0.167  0.0000  0.0000  0.0000
 2041OM     OM1 2041   4.717   4.047   8.302  0.0000  0.0000  0.0000
 2042OM     OM1 2042   4.835   3.820   8.246  0.0000  0.0000  0.0000
 2043OM     OM1 2043   9.310   2.676   8.316  0.0000  0.0000  0.0000
 2044OM     OM1 2044   9.499   2.725   8.487  0.0000  0.0000  0.0000
 2045OM     OM1 2045   9.567   2.610   8.267  0.0000  0.0000  0.0000
 2046OM     OM1 2046   1.652   6.351   8.260  0.0000  0.0000  0.0000
 2047OM     OM1 2047   1.466   6.185   8.290  0.0000  0.0000  0.0000
 2048OM     OM1 2048   1.437   6.412   8.404  0.0000  0.0000  0.0000
 2049OM     OM1 2049   6.681   5.175   8.762  0.0000  0.0000  0.0000
 2050OM     OM1 2050   6.575   5.132   8.996  0.0000  0.0000  0.0000
 2051OM     OM1 2051   6.832   5.092   8.965  0.0000  0.0000  0.0000
 2052OM     OM1 2052   6.744   5.331   8.971  0.0000  0.0000  0.0000
 2053OM     OM1 2053   9.086   7.388   9.546  0.0000  0.0000  0.0000
 2054OM     OM1 2054   8.976   7.560   0.097  0.0000  0.0000  0.0000
 2055OM     OM1 2055   0.015   0.184   0.590  0.0000  0.0000  0.0000
 2056OM     OM1 2056   0.167   0.161   0.390  0.0000  0.0000  0.0000
 2057OM     OM1 2057   0.270   0.271   0.597  0.0000  0.0000  0.0000
 2058OM     OM1 2058   0.229   0.027   0.617  0.0000  0.0000  0.0000
 2059OM     OM1 2059   0.142   9.594   9.271  0.0000  0.0000  0.0000
 2060OM     OM1 2060   0.164   9.393   9.087  0.0000  0.0000  0.0000
 2061OM     OM1 2061   0.099   9.347   9.342  0.0000  0.0000  0.0000
 2062OM     OM1 2062   0.526   2.326   0.866  0.0000  0.0000  0.0000
 2063OM     OM1 2063   0.308   2.276   0.992  0.0000  0.0000  0.0000
 2064OM     OM1 2064   0.411   2.526   0.999  0.0000  0.0000  0.0000
 2065OM     OM1 2065   0.297   2.440   0.788  0.0000  0.0000  0.0000
 2066OM     OM1 2066   6.613   7.624   1.431  0.0000  0.0000  0.0000
 2067OM     OM1 2067   5.632   1.681   9.096  0.0000  0.0000  0.0000
 2068OM     OM1 2068   5.713   1.910   9.189  0.0000  0.0000  0.0000
 2069OM     OM1 2069   5.599   1.740   9.352  0.0000  0.0000  0.0000
 2070OM     OM1 2070   9.326   7.309   9.514  0.0000  0.0000  0.0000
 2071OM     OM1 2071   9.216   7.408   9.308  0.0000  0.0000  0.0000
 2072OM     OM1 2072   1.060   3.710   0.338  0.0000  0.0000  0.0000
 2073OM     OM1 2073   1.245   3.545   0.404  0.0000  0.0000  0.0000
 2074OM     OM1 2074   1.058   3.347   9.572  0.0000  0.0000  0.0000
 2075OM     OM1 2075   4.197   2.980   9.091  0.0000  0.0000  0.0000
 2076OM     OM1 2076   4.379   2.857   9.226  0.0000  0.0000  0.0000
 2077OM     OM1 2077   4.303   2.775   8.986  0.0000  0.0000  0.0000
 2078OM     OM1 2078   4.460   2.973   9.007  0.0000  0.0000  0.0000
 2079OM     OM1 2079   1.826   8.225   0.683  0.0000  0.0000  0.0000
 2080OM     OM1 2080   1.895   8.401   0.879  0.0000  0.0000  0.0000
 2081OM     OM1 2081   2.049   8.371   0.672  0.0000  0.0000  0.0000
 2082OM     OM1 2082   8.510   2.095   1.032  0.0000  0.0000  0.0000
 2083OM     OM1 2083   8.471   1.859   0.923  0.0000  0.0000  0.0000
 2084OM     OM1 2084   4.663   5.627   8.743  0.0000  0.0000  0.0000
 2085OM     OM1 2085   4.826   5.585   8.543  0.0000  0.0000  0.0000
 2086OM     OM1 2086   4.776   5.397   8.704  0.0000  0.0000  0.0000
 2087OM     OM1 2087   4.593   5.461   8.540  0.0000  0.0000  0.0000
 2088OM     OM1 2088   2.524   1.672   8.770  0.0000  0.0000  0.0000
 2089OM     OM1 2089   2.493   1.608   9.013  0.0000  0.0000  0.0000
 2090OM     OM1 2090   2.323   1.523   8.838  0.0000  0.0000  0.0000
 2091OM     OM1 2091   2.333   1.783   8.911  0.0000  0.0000  0.0000
 2092OM     OM1 2092   3.358   7.342   8.447  0.0000  0.0000  0.0000
 2093OM     OM1 2093   3.424   7.170   8.635  0.0000  0.0000  0.0000
 2094OM     OM1 2094   3.187   7.177   8.535  0.0000  0.0000  0.0000
 2095OM     OM1 2095   3.375   7.070   8.396  0.0000  0.0000  0.0000
 2096OM     OM1 2096   9.021   8.796   8.435  0.0000  0.0000  0.0000
 2097OM     OM1 2097   9.225   8.644   8.373  0.0000  0.0000  0.0000
 2098OM     OM1 2098   7.681   4.712   8.450  0.0000  0.0000  0.0000
 2099OM     OM1 2099   7.868   4.601   8.292  0.0000  0.0000  0.0000
 2100OM     OM1 2100   7.511   4.894   8.518  0.0000  0.0000  0.0000
 2101OM     OM1 2101   4.969   6.865   9.490  0.0000  0.0000  0.0000
 2102OM     OM1 2102   4.876   7.017   0.072  0.0000  0.0000  0.0000
 2103OM     OM1 2103   4.885   7.113   9.439  0.0000  0.0000  0.0000
 2104OM     OM1 2104   1.028   4.263   0.603  0.0000  0.0000  0.0000
 2105OM     OM1 2105   0.882   4.144   0.805  0.0000  0.0000  0.0000
 2106OM     OM1 2106   0.852   4.396   0.752  0.0000  0.0000  0.0000
 2107OM     OM1 2107   6.114   0.436   1.220  0.0000  0.0000  0.0000
 2108OM     OM1 2108   5.940   0.602   1.139  0.0000  0.0000  0.0000
 2109OM     OM1 2109   3.367   3.606   8.483  0.0000  0.0000  0.0000
 2110OM     OM1 2110   3.154   3.748   8.493  0.0000  0.0000  0.0000
 2111OM     OM1 2111   3.235   3.615   8.709  0.0000  0.0000  0.0000
 2112OM     OM1 2112   3.131   3.490   8.511  0.0000  0.0000  0.0000
 2113OM     OM1 2113   4.273   6.206   8.654  0.0000  0.0000  0.0000
 2114OM     OM1 2114   4.351   5.950   8.624  0.0000  0.0000  0.0000
 2115OM     OM1 2115   4.244   6.032   8.845  0.0000  0.0000  0.0000
 2116OM     OM1 2116   4.484   6.122   8.768  0.0000  0.0000  0.0000
 2117OM     OM1 2117   6.170   7.962   9.578  0.0000  0.0000  0.0000
 2118OM     OM1 2118   6.048   7.749   9.560  0.0000  0.0000  0.0000
 2119OM     OM1 2119   5.827   7.913   9.562  0.0000  0.0000  0.0000
 2120OM     OM1 2120   5.864   7.722   0.126  0.0000  0.0000  0.0000
 2121OM     OM1 2121   8.060   1.412   9.457  0.0000  0.0000  0.0000
 2122OM     OM1 2122   7.885   1.232   9.352  0.0000  0.0000  0.0000
 2123OM     OM1 2123   8.132   1.189   9.331  0.0000  0.0000  0.0000
 2124OM     OM1 2124   8.045   1.391   9.203  0.0000  0.0000  0.0000
 2125OM     OM1 2125   7.880   8.470   0.762  0.0000  0.0000  0.0000
 2126OM     OM1 2126   7.968   8.318   0.566  0.0000  0.0000  0.0000
 2127OM     OM1 2127   6.953   7.933   0.151  0.0000  0.0000  0.0000
 2128OM     OM1 2128   6.745   7.922   0.002  0.0000  0.0000  0.0000
 2129OM     OM1 2129   6.728   7.838   0.251  0.0000  0.0000  0.0000
 2130OM     OM1 2130   6.870   7.705   0.055  0.0000  0.0000  0.0000
 2131OM     OM1 2131   2.809   9.509   8.749  0.0000  0.0000  0.0000
 2132OM     OM1 2132   2.554   9.476   8.698  0.0000  0.0000  0.0000
 2133OM     OM1 2133   5.048   6.205   8.514  0.0000  0.0000  0.0000
 2134OM     OM1 2134   5.054   6.304   8.755  0.0000  0.0000  0.0000
 2135OM     OM1 2135   5.277   6.295   8.619  0.0000  0.0000  0.0000
 2136OM     OM1 2136   5.104   6.465   8.549  0.0000  0.0000  0.0000
 2137OM     OM1 2137   1.818   2.364   8.582  0.0000  0.0000  0.0000
 2138OM     OM1 2138   1.984   2.184   8.617  0.0000  0.0000  0.0000
 2139OM     OM1 2139   2.054   2.364   8.445  0.0000  0.0000  0.0000
 2140OM     OM1 2140   3.557   8.436   0.728  0.0000  0.0000  0.0000
 2141OM     OM1 2141   3.798   8.399   0.648  0.0000  0.0000  0.0000
 2142OM     OM1 2142   3.690   8.643   0.652  0.0000  0.0000  0.0000
 2143OM     OM1 2143   3.635   8.469   0.467  0.0000  0.0000  0.0000
 2144OM     OM1 2144   1.195   9.364   8.758  0.0000  0.0000  0.0000
 2145OM     OM1 2145   1.309   9.453   8.981  0.0000  0.0000  0.0000
 2146OM     OM1 2146   1.186   9.216   8.972  0.0000  0.0000  0.0000
 2147OM     OM1 2147   1.053   9.436   8.963  0.0000  0.0000  0.0000
 2148OM     OM1 2148   1.715   6.481   1.416  0.0000  0.0000  0.0000
 2149OM     OM1 2149   3.839   5.167   0.972  0.0000  0.0000  0.0000
 2150OM     OM1 2150   3.682   4.976   1.069  0.0000  0.0000  0.0000
 2151OM     OM1 2151   3.606   5.140   0.880  0.0000  0.0000  0.0000
 2152OM     OM1 2152   8.135   5.715   0.119  0.0000  0.0000  0.0000
 2153OM     OM1 2153   8.137   5.761   9.466  0.0000  0.0000  0.0000
 2154OM     OM1 2154   8.306   5.889   9.603  0.0000  0.0000  0.0000
 2155OM     OM1 2155   8.325   5.621   9.570  0.0000  0.0000  0.0000
 2156OM     OM1 2156   2.802   5.951   0.454  0.0000  0.0000  0.0000
 2157OM     OM1 2157   2.632   6.153   0.436  0.0000  0.0000  0.0000
 2158OM     OM1 2158   2.736   6.081   0.669  0.0000  0.0000  0.0000
 2159OM     OM1 2159   7.697   8.248   1.064  0.0000  0.0000  0.0000
 2160OM     OM1 2160   7.901   8.383   1.159  0.0000  0.0000  0.0000
 2161OM     OM1 2161   4.774   8.644   8.449  0.0000  0.0000  0.0000
 2162OM     OM1 2162   4.825   8.881   8.367  0.0000  0.0000  0.0000
 2163OM     OM1 2163   5.126   8.522   8.351  0.0000  0.0000  0.0000
 2164OM     OM1 2164   4.942   8.671   8.250  0.0000  0.0000  0.0000
 2165OM     OM1 2165   3.345   8.326   8.245  0.0000  0.0000  0.0000
 2166OM     OM1 2166   3.394   8.589   8.313  0.0000  0.0000  0.0000
 2167OM     OM1 2167   9.238   2.738   9.057  0.0000  0.0000  0.0000
 2168OM     OM1 2168   9.189   2.780   8.796  0.0000  0.0000  0.0000
 2169OM     OM1 2169   9.266   2.551   8.888  0.0000  0.0000  0.0000
 2170OM     OM1 2170   9.027   2.632   8.946  0.0000  0.0000  0.0000
 2171OM     OM1 2171   6.464   5.037   9.550  0.0000  0.0000  0.0000
 2172OM     OM1 2172   6.409   5.261   9.448  0.0000  0.0000  0.0000
 2173OM     OM1 2173   6.508   5.249   0.089  0.0000  0.0000  0.0000
 2174OM     OM1 2174   6.259   5.197   0.043  0.0000  0.0000  0.0000
 2175OM     OM1 2175   5.760   4.472   1.024  0.0000  0.0000  0.0000
 2176OM     OM1 2176   5.363   4.700   1.248  0.0000  0.0000  0.0000
 2177OM     OM1 2177   5.831   4.624   1.222  0.0000  0.0000  0.0000
 2178OM     OM1 2178   5.582   4.625   1.139  0.0000  0.0000  0.0000
 2179OM     OM1 2179   8.728   7.935   9.560  0.0000  0.0000  0.0000
 2180OM     OM1 2180   8.640   8.101   0.117  0.0000  0.0000  0.0000
 2181OM     OM1 2181   5.026   6.635   9.352  0.0000  0.0000  0.0000
 2182OM     OM1 2182   5.171   6.844   9.330  0.0000  0.0000  0.0000
 2183OM     OM1 2183   4.919   6.833   9.239  0.0000  0.0000  0.0000
 2184OM     OM1 2184   4.346   7.472   0.920  0.0000  0.0000  0.0000
 2185OM     OM1 2185   4.269   7.459   0.683  0.0000  0.0000  0.0000
 2186OM     OM1 2186   4.473   7.623   0.735  0.0000  0.0000  0.0000
 2187OM     OM1 2187   4.503   7.363   0.742  0.0000  0.0000  0.0000
 2188OM     OM1 2188   7.694   5.935   0.126  0.0000  0.0000  0.0000
 2189OM     OM1 2189   7.479   6.054   0.032  0.0000  0.0000  0.0000
 2190OM     OM1 2190   7.648   5.940   9.471  0.0000  0.0000  0.0000
 2191OM     OM1 2191   7.512   5.790   0.014  0.0000  0.0000  0.0000
 2192OM     OM1 2192   5.594   3.069   8.567  0.0000  0.0000  0.0000
 2193OM     OM1 2193   5.614   3.186   8.802  0.0000  0.0000  0.0000
 2194OM     OM1 2194   5.331   2.938   8.581  0.0000  0.0000  0.0000
 2195OM     OM1 2195   5.498   2.938   8.768  0.0000  0.0000  0.0000
 2196OM     OM1 2196   8.214   5.609   0.547  0.0000  0.0000  0.0000
 2197OM     OM1 2197   8.453   5.565   0.447  0.0000  0.0000  0.0000
 2198OM     OM1 2198   8.387   5.460   0.679  0.0000  0.0000  0.0000
 2199OM     OM1 2199   8.282   5.372   0.462  0.0000  0.0000  0.0000
 2200OM     OM1 2200   8.310   0.988   8.308  0.0000  0.0000  0.0000
 2201OM     OM1 2201   8.524   1.123   8.311  0.0000  0.0000  0.0000
 2202OM     OM1 2202   7.962   6.206   9.538  0.0000  0.0000  0.0000
 2203OM     OM1 2203   7.867   6.135   9.295  0.0000  0.0000  0.0000
 2204OM     OM1 2204   8.003   5.976   9.432  0.0000  0.0000  0.0000
 2205OM     OM1 2205   8.123   6.192   9.334  0.0000  0.0000  0.0000
 2206OM     OM1 2206   5.512   0.635   8.829  0.0000  0.0000  0.0000
 2207OM     OM1 2207   5.636   0.845   8.892  0.0000  0.0000  0.0000
 2208OM     OM1 2208   5.752   0.679   8.737  0.0000  0.0000  0.0000
 2209OM     OM1 2209   1.541   8.970   8.597  0.0000  0.0000  0.0000
 2210OM     OM1 2210   1.576   9.136   8.797  0.0000  0.0000  0.0000
 2211OM     OM1 2211   1.340   9.067   8.717  0.0000  0.0000  0.0000
 2212OM     OM1 2212   8.906   5.561   0.661  0.0000  0.0000  0.0000
 2213OM     OM1 2213   8.939   5.445   0.421  0.0000  0.0000  0.0000
 2214OM     OM1 2214   9.094   5.645   0.504  0.0000  0.0000  0.0000
 2215OM     OM1 2215   9.098   5.398   0.610  0.0000  0.0000  0.0000
 2216OM     OM1 2216   8.094   2.000   8.420  0.0000  0.0000  0.0000
 2217OM     OM1 2217   7.883   2.035   8.261  0.0000  0.0000  0.0000
 2218OM     OM1 2218   3.549   2.456   0.584  0.0000  0.0000  0.0000
 2219OM     OM1 2219   3.489   2.614   0.786  0.0000  0.0000  0.0000
 2220OM     OM1 2220   3.741   2.570   0.706  0.0000  0.0000  0.0000
 2221OM     OM1 2221   3.581   2.729   0.582  0.0000  0.0000  0.0000
 2222OM     OM1 2222   4.510   0.889   0.113  0.0000  0.0000  0.0000
 2223OM     OM1 2223   4.338   0.951   9.528  0.0000  0.0000  0.0000
 2224OM     OM1 2224   4.273   0.787   0.109  0.0000  0.0000  0.0000
 2225OM     OM1 2225   4.442   0.708   9.532  0.0000  0.0000  0.0000
 2226OM     OM1 2226   6.670   8.730   0.245  0.0000  0.0000  0.0000
 2227OM     OM1 2227   6.842   8.525   0.194  0.0000  0.0000  0.0000
 2228OM     OM1 2228   6.921   8.728   0.336  0.0000  0.0000  0.0000
 2229OM     OM1 2229   6.860   8.764   0.083  0.0000  0.0000  0.0000
 2230OM     OM1 2230   5.899   0.464   8.802  0.0000  0.0000  0.0000
 2231OM     OM1 2231   6.018   0.700   8.754  0.0000  0.0000  0.0000
 2232OM     OM1 2232   5.906   0.567   8.567  0.0000  0.0000  0.0000
 2233OM     OM1 2233   8.764   4.493   8.356  0.0000  0.0000  0.0000
 2234OM     OM1 2234   9.016   4.446   8.300  0.0000  0.0000  0.0000
 2235OM     OM1 2235   0.268   0.114   0.119  0.0000  0.0000  0.0000
 2236OM     OM1 2236   0.289   9.475   0.196  0.0000  0.0000  0.0000
 2237OM     OM1 2237   0.452   0.023   0.322  0.0000  0.0000  0.0000
 2238OM     OM1 2238   0.489   0.001   0.063  0.0000  0.0000  0.0000
 2239OM     OM1 2239   6.538   7.219   8.432  0.0000  0.0000  0.0000
 2240OM     OM1 2240   6.619   7.450   8.324  0.0000  0.0000  0.0000
 2241OM     OM1 2241   6.651   7.406   8.572  0.0000  0.0000  0.0000
 2242OM     OM1 2242   7.290   4.319   0.703  0.0000  0.0000  0.0000
 2243OM     OM1 2243   7.495   4.299   0.851  0.0000  0.0000  0.0000
 2244OM     OM1 2244   7.459   4.525   0.701  0.0000  0.0000  0.0000
 2245OM     OM1 2245   7.537   4.306   0.598  0.0000  0.0000  0.0000
 2246OM     OM1 2246   6.335   5.305   8.390  0.0000  0.0000  0.0000
 2247OM     OM1 2247   6.247   5.280   8.640  0.0000  0.0000  0.0000
 2248OM     OM1 2248   6.495   5.224   8.582  0.0000  0.0000  0.0000
 2249OM     OM1 2249   6.395   5.480   8.562  0.0000  0.0000  0.0000
 2250OM     OM1 2250   8.825   3.414   0.007  0.0000  0.0000  0.0000
 2251OM     OM1 2251   8.603   3.305   9.525  0.0000  0.0000  0.0000
 2252OM     OM1 2252   8.631   3.565   9.496  0.0000  0.0000  0.0000
 2253OM     OM1 2253   8.327   6.576   1.071  0.0000  0.0000  0.0000
 2254OM     OM1 2254   8.308   6.584   0.815  0.0000  0.0000  0.0000
 2255OM     OM1 2255   8.398   6.365   0.936  0.0000  0.0000  0.0000
 2256OM     OM1 2256   8.151   6.420   0.963  0.0000  0.0000  0.0000
 2257OM     OM1 2257   7.192   7.363   9.090  0.0000  0.0000  0.0000
 2258OM     OM1 2258   7.419   7.231   9.027  0.0000  0.0000  0.0000
 2259OM     OM1 2259   7.285   7.361   8.844  0.0000  0.0000  0.0000
 2260OM     OM1 2260   7.415   7.485   9.037  0.0000  0.0000  0.0000
 2261OM     OM1 2261   1.896   5.218   1.009  0.0000  0.0000  0.0000
 2262OM     OM1 2262   1.968   5.338   0.791  0.0000  0.0000  0.0000
 2263OM     OM1 2263   1.732   5.237   0.795  0.0000  0.0000  0.0000
 2264OM     OM1 2264   1.938   5.078   0.794  0.0000  0.0000  0.0000
 2265OM     OM1 2265   2.011   9.124   0.470  0.0000  0.0000  0.0000
 2266OM     OM1 2266   2.092   9.166   0.723  0.0000  0.0000  0.0000
 2267OM     OM1 2267   2.258   9.089   0.536  0.0000  0.0000  0.0000
 2268OM     OM1 2268   2.168   9.328   0.526  0.0000  0.0000  0.0000
 2269OM     OM1 2269   1.596   1.600   0.145  0.0000  0.0000  0.0000
 2270OM     OM1 2270   1.551   1.351   0.196  0.0000  0.0000  0.0000
 2271OM     OM1 2271   1.557   1.235   0.428  0.0000  0.0000  0.0000
 2272OM     OM1 2272   1.689   1.137   0.207  0.0000  0.0000  0.0000
 2273OM     OM1 2273   9.505   7.187   0.032  0.0000  0.0000  0.0000
 2274OM     OM1 2274   9.560   7.417   9.515  0.0000  0.0000  0.0000
 2275OM     OM1 2275   9.434   7.419   0.131  0.0000  0.0000  0.0000
 2276OM     OM1 2276   0.763   3.718   9.281  0.0000  0.0000  0.0000
 2277OM     OM1 2277   0.718   3.908   9.109  0.0000  0.0000  0.0000
 2278OM     OM1 2278   0.628   3.670   9.060  0.0000  0.0000  0.0000
 2279OM     OM1 2279   0.889   3.725   9.051  0.0000  0.0000  0.0000
 2280OM     OM1 2280   1.406   7.185   8.762  0.0000  0.0000  0.0000
 2281OM     OM1 2281   1.556   7.354   8.874  0.0000  0.0000  0.0000
 2282OM     OM1 2282   1.462   7.152   9.015  0.0000  0.0000  0.0000
 2283OM     OM1 2283   1.302   7.358   8.921  0.0000  0.0000  0.0000
 2284OM     OM1 2284   1.298   0.767   1.009  0.0000  0.0000  0.0000
 2285OM     OM1 2285   1.315   0.527   1.097  0.0000  0.0000  0.0000
 2286OM     OM1 2286   1.535   0.615   0.994  0.0000  0.0000  0.0000
 2287OM     OM1 2287   1.341   0.576   0.839  0.0000  0.0000  0.0000
 2288OM     OM1 2288   5.848   6.238   9.044  0.0000  0.0000  0.0000
 2289OM     OM1 2289   5.753   6.299   8.802  0.0000  0.0000  0.0000
 2290OM     OM1 2290   5.761   6.471   9.004  0.0000  0.0000  0.0000
 2291OM     OM1 2291   0.766   2.741   9.027  0.0000  0.0000  0.0000
 2292OM     OM1 2292   0.925   2.928   8.982  0.0000  0.0000  0.0000
 2293OM     OM1 2293   0.911   2.828   9.226  0.0000  0.0000  0.0000
 2294OM     OM1 2294   0.717   2.977   9.131  0.0000  0.0000  0.0000
 2295OM     OM1 2295   4.270   9.136   8.438  0.0000  0.0000  0.0000
 2296OM     OM1 2296   5.069   1.603   1.197  0.0000  0.0000  0.0000
 2297OM     OM1 2297   5.022   1.347   1.284  0.0000  0.0000  0.0000
 2298OM     OM1 2298   4.842   1.532   1.288  0.0000  0.0000  0.0000
 2299OM     OM1 2299   2.252   8.584   8.328  0.0000  0.0000  0.0000
 2300OM     OM1 2300   3.808   6.605   0.064  0.0000  0.0000  0.0000
 2301OM     OM1 2301   3.786   6.858   0.144  0.0000  0.0000  0.0000
 2302OM     OM1 2302   4.023   6.740   0.122  0.0000  0.0000  0.0000
 2303OM     OM1 2303   3.859   6.678   0.312  0.0000  0.0000  0.0000
 2304OM     OM1 2304   0.336   3.989   8.598  0.0000  0.0000  0.0000
 2305OM     OM1 2305   7.875   5.594   0.844  0.0000  0.0000  0.0000
 2306OM     OM1 2306   7.958   5.830   0.859  0.0000  0.0000  0.0000
 2307OM     OM1 2307   7.749   5.776   0.707  0.0000  0.0000  0.0000
 2308OM     OM1 2308   7.984   5.703   0.626  0.0000  0.0000  0.0000
 2309OM     OM1 2309   0.202   7.539   0.438  0.0000  0.0000  0.0000
 2310OM     OM1 2310   0.221   7.271   0.415  0.0000  0.0000  0.0000
 2311OM     OM1 2311   0.022   7.410   0.307  0.0000  0.0000  0.0000
 2312OM     OM1 2312   0.043   7.387   0.568  0.0000  0.0000  0.0000
 2313OM     OM1 2313   0.146   5.167   1.091  0.0000  0.0000  0.0000
 2314OM     OM1 2314   0.304   5.293   0.933  0.0000  0.0000  0.0000
 2315OM     OM1 2315   0.141   5.117   0.831  0.0000  0.0000  0.0000
 2316OM     OM1 2316   0.354   5.046   0.979  0.0000  0.0000  0.0000
 2317OM     OM1 2317   7.001   5.929   0.050  0.0000  0.0000  0.0000
 2318OM     OM1 2318   6.805   5.984   9.482  0.0000  0.0000  0.0000
 2319OM     OM1 2319   6.972   5.795   9.433  0.0000  0.0000  0.0000
 2320OM     OM1 2320   6.793   5.770   0.018  0.0000  0.0000  0.0000
 2321OM     OM1 2321   2.673   0.467   0.110  0.0000  0.0000  0.0000
 2322OM     OM1 2322   2.585   0.488   0.358  0.0000  0.0000  0.0000
 2323OM     OM1 2323   2.701   0.274   0.290  0.0000  0.0000  0.0000
 2324OM     OM1 2324   3.588   8.330   1.426  0.0000  0.0000  0.0000
 2325OM     OM1 2325   3.702   8.463   1.241  0.0000  0.0000  0.0000
 2326OM     OM1 2326   2.840   8.895   0.865  0.0000  0.0000  0.0000
 2327OM     OM1 2327   2.672   8.975   1.058  0.0000  0.0000  0.0000
 2328OM     OM1 2328   2.859   8.809   1.116  0.0000  0.0000  0.0000
 2329OM     OM1 2329   2.925   9.051   1.047  0.0000  0.0000  0.0000
 2330OM     OM1 2330   0.219   7.358   8.459  0.0000  0.0000  0.0000
 2331OM     OM1 2331   0.318   7.154   8.571  0.0000  0.0000  0.0000
 2332OM     OM1 2332   0.420   7.470   8.343  0.0000  0.0000  0.0000
 2333OM     OM1 2333   2.557   7.031   0.279  0.0000  0.0000  0.0000
 2334OM     OM1 2334   2.522   7.282   0.248  0.0000  0.0000  0.0000
 2335OM     OM1 2335   2.364   7.146   0.409  0.0000  0.0000  0.0000
 2336OM     OM1 2336   2.611   7.194   0.481  0.0000  0.0000  0.0000
 2337OM     OM1 2337   8.532   1.961   0.496  0.0000  0.0000  0.0000
 2338OM     OM1 2338   8.970   1.752   0.373  0.0000  0.0000  0.0000
 2339OM     OM1 2339   8.603   1.832   0.705  0.0000  0.0000  0.0000
 2340OM     OM1 2340   8.779   1.831   0.514  0.0000  0.0000  0.0000
 2341OM     OM1 2341   8.927   4.758   8.997  0.0000  0.0000  0.0000
 2342OM     OM1 2342   8.828   4.554   8.595  0.0000  0.0000  0.0000
 2343OM     OM1 2343   8.973   4.726   8.742  0.0000  0.0000  0.0000
 2344OM     OM1 2344   1.255   4.479   9.354  0.0000  0.0000  0.0000
 2345OM     OM1 2345   1.126   4.502   9.583  0.0000  0.0000  0.0000
 2346OM     OM1 2346   1.111   4.699   9.426  0.0000  0.0000  0.0000
 2347OM     OM1 2347   1.337   4.655   9.525  0.0000  0.0000  0.0000
 2348OM     OM1 2348   4.940   6.030   8.656  0.0000  0.0000  0.0000
 2349OM     OM1 2349   5.103   5.959   8.454  0.0000  0.0000  0.0000
 2350OM     OM1 2350   4.229   9.048   0.816  0.0000  0.0000  0.0000
 2351OM     OM1 2351   4.009   9.002   0.671  0.0000  0.0000  0.0000
 2352OM     OM1 2352   4.208   9.298   0.862  0.0000  0.0000  0.0000
 2353OM     OM1 2353   4.209   9.143   0.579  0.0000  0.0000  0.0000
 2354OM     OM1 2354   6.927   3.623   0.729  0.0000  0.0000  0.0000
 2355OM     OM1 2355   7.110   3.769   0.631  0.0000  0.0000  0.0000
 2356OM     OM1 2356   6.880   3.746   0.498  0.0000  0.0000  0.0000
 2357OM     OM1 2357   7.054   3.545   0.516  0.0000  0.0000  0.0000
 2358OM     OM1 2358   9.593   3.278   9.281  0.0000  0.0000  0.0000
 2359OM     OM1 2359   0.136   3.486   9.185  0.0000  0.0000  0.0000
 2360OM     OM1 2360   9.521   3.410   9.070  0.0000  0.0000  0.0000
 2361OM     OM1 2361   9.505   3.530   9.295  0.0000  0.0000  0.0000
 2362OM     OM1 2362   0.548   5.386   0.937  0.0000  0.0000  0.0000
 2363OM     OM1 2363   0.774   5.251   0.959  0.0000  0.0000  0.0000
 2364OM     OM1 2364   0.722   5.418   0.752  0.0000  0.0000  0.0000
 2365OM     OM1 2365   0.776   5.504   0.994  0.0000  0.0000  0.0000
 2366OM     OM1 2366   0.240   5.557   0.585  0.0000  0.0000  0.0000
 2367OM     OM1 2367   0.097   5.560   0.814  0.0000  0.0000  0.0000
 2368OM     OM1 2368   0.255   5.755   0.750  0.0000  0.0000  0.0000
 2369OM     OM1 2369   0.352   5.520   0.819  0.0000  0.0000  0.0000
 2370OM     OM1 2370   1.233   0.834   9.543  0.0000  0.0000  0.0000
 2371OM     OM1 2371   1.371   1.054   9.462  0.0000  0.0000  0.0000
 2372OM     OM1 2372   1.113   1.049   9.445  0.0000  0.0000  0.0000
 2373OM     OM1 2373   1.238   1.044   0.076  0.0000  0.0000  0.0000
 2374OM     OM1 2374   4.219   0.485   0.415  0.0000  0.0000  0.0000
 2375OM     OM1 2375   4.358   0.440   0.201  0.0000  0.0000  0.0000
 2376OM     OM1 2376   4.121   0.324   0.218  0.0000  0.0000  0.0000
 2377OM     OM1 2377   4.138   0.585   0.200  0.0000  0.0000  0.0000
 2378OM     OM1 2378   4.382   5.794   0.019  0.0000  0.0000  0.0000
 2379OM     OM1 2379   4.292   5.945   9.416  0.0000  0.0000  0.0000
 2380OM     OM1 2380   4.417   6.049   0.005  0.0000  0.0000  0.0000
 2381OM     OM1 2381   4.547   5.888   9.446  0.0000  0.0000  0.0000
 2382OM     OM1 2382   0.564   8.232   1.055  0.0000  0.0000  0.0000
 2383OM     OM1 2383   0.303   8.234   1.051  0.0000  0.0000  0.0000
 2384OM     OM1 2384   0.437   8.066   0.904  0.0000  0.0000  0.0000
 2385OM     OM1 2385   0.440   8.316   0.840  0.0000  0.0000  0.0000
 2386OM     OM1 2386   1.226   5.976   8.923  0.0000  0.0000  0.0000
 2387OM     OM1 2387   1.061   6.165   9.018  0.0000  0.0000  0.0000
 2388OM     OM1 2388   1.133   6.157   8.765  0.0000  0.0000  0.0000
 2389OM     OM1 2389   0.975   5.972   8.863  0.0000  0.0000  0.0000
 2390OM     OM1 2390   0.802   0.780   0.212  0.0000  0.0000  0.0000
 2391OM     OM1 2391   0.842   0.976   0.055  0.0000  0.0000  0.0000
 2392OM     OM1 2392   0.802   0.726   9.564  0.0000  0.0000  0.0000
 2393OM     OM1 2393   1.026   0.793   0.085  0.0000  0.0000  0.0000
 2394OM     OM1 2394   4.574   5.875   0.162  0.0000  0.0000  0.0000
 2395OM     OM1 2395   4.529   5.615   0.145  0.0000  0.0000  0.0000
 2396OM     OM1 2396   4.375   5.777   0.285  0.0000  0.0000  0.0000
 2397OM     OM1 2397   4.554   5.358   0.217  0.0000  0.0000  0.0000
 2398OM     OM1 2398   1.096   8.792   0.503  0.0000  0.0000  0.0000
 2399OM     OM1 2399   0.932   8.937   0.379  0.0000  0.0000  0.0000
 2400OM     OM1 2400   1.168   9.035   0.414  0.0000  0.0000  0.0000
 2401OM     OM1 2401   1.072   8.564   0.389  0.0000  0.0000  0.0000
 2402OM     OM1 2402   4.055   7.675   9.359  0.0000  0.0000  0.0000
 2403OM     OM1 2403   4.009   7.649   0.017  0.0000  0.0000  0.0000
 2404OM     OM1 2404   3.974   7.874   9.499  0.0000  0.0000  0.0000
 2405OM     OM1 2405   3.812   7.675   9.444  0.0000  0.0000  0.0000
 2406OM     OM1 2406   2.978   1.274   0.813  0.0000  0.0000  0.0000
 2407OM     OM1 2407   3.053   1.518   0.784  0.0000  0.0000  0.0000
 2408OM     OM1 2408   2.811   1.461   0.825  0.0000  0.0000  0.0000
 2409OM     OM1 2409   2.996   1.417   1.025  0.0000  0.0000  0.0000
 2410OM     OM1 2410   4.996   7.306   9.065  0.0000  0.0000  0.0000
 2411OM     OM1 2411   4.967   7.332   9.326  0.0000  0.0000  0.0000
 2412OM     OM1 2412   5.184   7.224   9.218  0.0000  0.0000  0.0000
 2413OM     OM1 2413   6.529   3.014   0.108  0.0000  0.0000  0.0000
 2414OM     OM1 2414   6.766   3.093   0.147  0.0000  0.0000  0.0000
 2415OM     OM1 2415   6.711   2.825   0.146  0.0000  0.0000  0.0000
 2416OM     OM1 2416   6.705   2.964   9.531  0.0000  0.0000  0.0000
 2417OM     OM1 2417   3.093   6.976   0.938  0.0000  0.0000  0.0000
 2418OM     OM1 2418   3.009   6.816   1.136  0.0000  0.0000  0.0000
 2419OM     OM1 2419   3.187   7.003   1.180  0.0000  0.0000  0.0000
 2420OM     OM1 2420   2.941   7.063   1.147  0.0000  0.0000  0.0000
 2421OM     OM1 2421   4.346   3.997   1.112  0.0000  0.0000  0.0000
 2422OM     OM1 2422   4.100   4.019   1.042  0.0000  0.0000  0.0000
 2423OM     OM1 2423   4.268   3.914   0.870  0.0000  0.0000  0.0000
 2424OM     OM1 2424   4.290   4.169   0.927  0.0000  0.0000  0.0000
 2425OM     OM1 2425   0.594   0.439   9.003  0.0000  0.0000  0.0000
 2426OM     OM1 2426   0.851   0.428   8.959  0.0000  0.0000  0.0000
 2427OM     OM1 2427   0.684   0.257   8.855  0.0000  0.0000  0.0000
 2428OM     OM1 2428   0.686   0.500   8.762  0.0000  0.0000  0.0000
 2429OM     OM1 2429   8.244   3.766   8.271  0.0000  0.0000  0.0000
 2430OM     OM1 2430   8.428   3.583   8.280  0.0000  0.0000  0.0000
 2431OM     OM1 2431   8.808   7.014   8.240  0.0000  0.0000  0.0000
 2432OM     OM1 2432   9.140   7.353   8.301  0.0000  0.0000  0.0000
 2433OM     OM1 2433   9.044   7.131   8.221  0.0000  0.0000  0.0000
 2434OM     OM1 2434   2.564   5.895   0.051  0.0000  0.0000  0.0000
 2435OM     OM1 2435   2.501   6.101   0.216  0.0000  0.0000  0.0000
 2436OM     OM1 2436   2.599   6.145   9.588  0.0000  0.0000  0.0000
 2437OM     OM1 2437   2.364   6.050   9.597  0.0000  0.0000  0.0000
 2438OM     OM1 2438   4.093   3.115   9.496  0.0000  0.0000  0.0000
 2439OM     OM1 2439   4.118   3.025   0.137  0.0000  0.0000  0.0000
 2440OM     OM1 2440   3.891   2.990   0.028  0.0000  0.0000  0.0000
 2441OM     OM1 2441   4.117   2.864   9.557  0.0000  0.0000  0.0000
 2442OM     OM1 2442   2.329   2.731   1.116  0.0000  0.0000  0.0000
 2443OM     OM1 2443   2.178   2.925   1.212  0.0000  0.0000  0.0000
 2444OM     OM1 2444   2.158   2.827   0.957  0.0000  0.0000  0.0000
 2445OM     OM1 2445   2.067   2.699   1.161  0.0000  0.0000  0.0000
 2446OM     OM1 2446   2.586   5.462   0.888  0.0000  0.0000  0.0000
 2447OM     OM1 2447   2.624   5.667   0.723  0.0000  0.0000  0.0000
 2448OM     OM1 2448   2.422   5.511   0.690  0.0000  0.0000  0.0000
 2449OM     OM1 2449   2.429   5.673   0.894  0.0000  0.0000  0.0000
 2450OM     OM1 2450   1.720   3.170   1.119  0.0000  0.0000  0.0000
 2451OM     OM1 2451   1.506   3.280   1.225  0.0000  0.0000  0.0000
 2452OM     OM1 2452   1.726   3.429   1.187  0.0000  0.0000  0.0000
 2453OM     OM1 2453   8.218   0.197   1.064  0.0000  0.0000  0.0000
 2454OM     OM1 2454   8.312   0.401   0.916  0.0000  0.0000  0.0000
 2455OM     OM1 2455   8.454   0.309   1.112  0.0000  0.0000  0.0000
 2456OM     OM1 2456   0.630   0.892   8.289  0.0000  0.0000  0.0000
 2457OM     OM1 2457   0.672   0.636   8.277  0.0000  0.0000  0.0000
 2458OM     OM1 2458   4.035   4.514   8.915  0.0000  0.0000  0.0000
 2459OM     OM1 2459   4.170   4.728   9.000  0.0000  0.0000  0.0000
 2460OM     OM1 2460   4.239   4.598   8.783  0.0000  0.0000  0.0000
 2461OM     OM1 2461   4.274   4.487   9.016  0.0000  0.0000  0.0000
 2462OM     OM1 2462   3.850   3.655   1.300  0.0000  0.0000  0.0000
 2463OM     OM1 2463   3.662   3.479   1.307  0.0000  0.0000  0.0000
 2464OM     OM1 2464   0.175   6.868   0.726  0.0000  0.0000  0.0000
 2465OM     OM1 2465   0.158   6.683   0.913  0.0000  0.0000  0.0000
 2466OM     OM1 2466   0.012   6.661   0.708  0.0000  0.0000  0.0000
 2467OM     OM1 2467   9.576   6.865   0.880  0.0000  0.0000  0.0000
 2468OM     OM1 2468   6.723   5.784   8.704  0.0000  0.0000  0.0000
 2469OM     OM1 2469   6.731   5.858   8.466  0.0000  0.0000  0.0000
 2470OM     OM1 2470   6.777   5.600   8.538  0.0000  0.0000  0.0000
 2471OM     OM1 2471   6.540   5.693   8.518  0.0000  0.0000  0.0000
 2472OM     OM1 2472   4.437   2.349   8.766  0.0000  0.0000  0.0000
 2473OM     OM1 2473   4.253   2.458   8.611  0.0000  0.0000  0.0000
 2474OM     OM1 2474   4.393   2.600   8.793  0.0000  0.0000  0.0000
 2475OM     OM1 2475   4.494   2.513   8.568  0.0000  0.0000  0.0000
 2476OM     OM1 2476   9.458   0.529   0.355  0.0000  0.0000  0.0000
 2477OM     OM1 2477   9.224   0.481   0.444  0.0000  0.0000  0.0000
 2478OM     OM1 2478   9.252   0.594   0.205  0.0000  0.0000  0.0000
 2479OM     OM1 2479   9.339   0.574   0.653  0.0000  0.0000  0.0000
 2480OM     OM1 2480   7.333   1.062   9.173  0.0000  0.0000  0.0000
 2481OM     OM1 2481   7.279   1.317   9.256  0.0000  0.0000  0.0000
 2482OM     OM1 2482   7.413   1.168   9.399  0.0000  0.0000  0.0000
 2483OM     OM1 2483   5.175   2.770   1.149  0.0000  0.0000  0.0000
 2484OM     OM1 2484   5.061   3.000   1.155  0.0000  0.0000  0.0000
 2485OM     OM1 2485   4.922   2.789   1.085  0.0000  0.0000  0.0000
 2486OM     OM1 2486   0.062   8.752   9.338  0.0000  0.0000  0.0000
 2487OM     OM1 2487   0.172   8.958   9.222  0.0000  0.0000  0.0000
 2488OM     OM1 2488   0.014   8.818   9.080  0.0000  0.0000  0.0000
 2489OM     OM1 2489   9.506   8.948   9.267  0.0000  0.0000  0.0000
 2490OM     OM1 2490   3.297   3.396   0.853  0.0000  0.0000  0.0000
 2491OM     OM1 2491   3.469   2.961   0.635  0.0000  0.0000  0.0000
 2492OM     OM1 2492   3.401   3.199   0.708  0.0000  0.0000  0.0000
 2493OM     OM1 2493   0.910   5.799   8.408  0.0000  0.0000  0.0000
 2494OM     OM1 2494   1.037   5.831   8.188  0.0000  0.0000  0.0000
 2495OM     OM1 2495   1.014   6.036   8.352  0.0000  0.0000  0.0000
 2496OM     OM1 2496   6.341   2.765   8.611  0.0000  0.0000  0.0000
 2497OM     OM1 2497   6.483   2.966   8.530  0.0000  0.0000  0.0000
 2498OM     OM1 2498   6.247   2.905   8.403  0.0000  0.0000  0.0000
 2499OM     OM1 2499   6.471   2.766   8.385  0.0000  0.0000  0.0000
 2500OM     OM1 2500   6.031   8.430   1.377  0.0000  0.0000  0.0000
 2501OM     OM1 2501   5.825   8.489   1.232  0.0000  0.0000  0.0000
 2502OM     OM1 2502   5.755   0.570   9.596  0.0000  0.0000  0.0000
 2503OM     OM1 2503   5.879   0.621   0.212  0.0000  0.0000  0.0000
 2504OM     OM1 2504   5.959   0.420   0.051  0.0000  0.0000  0.0000
 2505OM     OM1 2505   6.602   8.572   1.054  0.0000  0.0000  0.0000
 2506OM     OM1 2506   6.369   8.671   1.151  0.0000  0.0000  0.0000
 2507OM     OM1 2507   6.666   8.324   1.042  0.0000  0.0000  0.0000
 2508OM     OM1 2508   6.298   6.596   9.223  0.0000  0.0000  0.0000
 2509OM     OM1 2509   6.303   6.331   9.173  0.0000  0.0000  0.0000
 2510OM     OM1 2510   6.338   6.436   9.417  0.0000  0.0000  0.0000
 2511OM     OM1 2511   6.105   6.445   9.298  0.0000  0.0000  0.0000
 2512OM     OM1 2512   9.417   8.282   0.799  0.0000  0.0000  0.0000
 2513OM     OM1 2513   9.332   8.511   0.881  0.0000  0.0000  0.0000
 2514OM     OM1 2514   9.358   8.487   0.625  0.0000  0.0000  0.0000
 2515OM     OM1 2515   9.574   8.488   0.766  0.0000  0.0000  0.0000
 2516OM     OM1 2516   1.377   1.825   8.584  0.0000  0.0000  0.0000
 2517OM     OM1 2517   1.211   1.828   8.377  0.0000  0.0000  0.0000
 2518OM     OM1 2518   1.442   1.932   8.354  0.0000  0.0000  0.0000
 2519OM     OM1 2519   1.261   2.053   8.498  0.0000  0.0000  0.0000
 2520OM     OM1 2520   8.623   3.189   8.938  0.0000  0.0000  0.0000
 2521OM     OM1 2521   8.497   3.212   9.167  0.0000  0.0000  0.0000
 2522OM     OM1 2522   8.632   3.414   9.069  0.0000  0.0000  0.0000
 2523OM     OM1 2523   8.757   3.221   9.168  0.0000  0.0000  0.0000
 2524OM     OM1 2524   8.944   1.449   0.669  0.0000  0.0000  0.0000
 2525OM     OM1 2525   8.955   1.366   0.403  0.0000  0.0000  0.0000
 2526OM     OM1 2526   9.055   1.233   0.615  0.0000  0.0000  0.0000
 2527OM     OM1 2527   9.164   1.453   0.530  0.0000  0.0000  0.0000
 2528OM     OM1 2528   0.501   8.409   0.364  0.0000  0.0000  0.0000
 2529OM     OM1 2529   0.308   8.576   0.350  0.0000  0.0000  0.0000
 2530OM     OM1 2530   0.397   8.468   0.135  0.0000  0.0000  0.0000
 2531OM     OM1 2531   0.247   8.331   0.301  0.0000  0.0000  0.0000
 2532OM     OM1 2532   3.426   8.477   0.324  0.0000  0.0000  0.0000
 2533OM     OM1 2533   3.191   8.429   0.436  0.0000  0.0000  0.0000
 2534OM     OM1 2534   3.247   8.660   0.318  0.0000  0.0000  0.0000
 2535OM     OM1 2535   3.220   8.439   0.175  0.0000  0.0000  0.0000
 2536OM     OM1 2536   6.909   5.965   8.762  0.0000  0.0000  0.0000
 2537OM     OM1 2537   6.973   5.720   8.751  0.0000  0.0000  0.0000
 2538OM     OM1 2538   6.821   5.796   8.946  0.0000  0.0000  0.0000
 2539OM     OM1 2539   2.869   8.563   1.048  0.0000  0.0000  0.0000
 2540OM     OM1 2540   2.812   8.607   1.289  0.0000  0.0000  0.0000
 2541OM     OM1 2541   3.058   8.670   1.200  0.0000  0.0000  0.0000
 2542OM     OM1 2542   7.217   0.889   0.693  0.0000  0.0000  0.0000
 2543OM     OM1 2543   7.013   0.864   0.845  0.0000  0.0000  0.0000
 2544OM     OM1 2544   7.259   0.779   0.926  0.0000  0.0000  0.0000
 2545OM     OM1 2545   6.571   2.568   9.036  0.0000  0.0000  0.0000
 2546OM     OM1 2546   6.724   2.389   9.132  0.0000  0.0000  0.0000
 2547OM     OM1 2547   6.558   2.329   8.941  0.0000  0.0000  0.0000
 2548OM     OM1 2548   6.459   2.359   9.171  0.0000  0.0000  0.0000
 2549OM     OM1 2549   2.028   3.307   0.459  0.0000  0.0000  0.0000
 2550OM     OM1 2550   1.856   3.417   0.601  0.0000  0.0000  0.0000
 2551OM     OM1 2551   2.113   3.465   0.647  0.0000  0.0000  0.0000
 2552OM     OM1 2552   1.995   3.242   0.724  0.0000  0.0000  0.0000
 2553OM     OM1 2553   2.282   7.096   0.874  0.0000  0.0000  0.0000
 2554OM     OM1 2554   2.480   7.188   1.043  0.0000  0.0000  0.0000
 2555OM     OM1 2555   2.237   7.253   1.077  0.0000  0.0000  0.0000
 2556OM     OM1 2556   2.362   7.344   0.871  0.0000  0.0000  0.0000
 2557OM     OM1 2557   2.101   6.077   8.281  0.0000  0.0000  0.0000
 2558OM     OM1 2558   2.285   5.766   8.470  0.0000  0.0000  0.0000
 2559OM     OM1 2559   2.503   5.840   8.343  0.0000  0.0000  0.0000
 2560OM     OM1 2560   2.263   5.874   8.236  0.0000  0.0000  0.0000
 2561OM     OM1 2561   1.182   1.231   8.976  0.0000  0.0000  0.0000
 2562OM     OM1 2562   1.320   1.077   9.130  0.0000  0.0000  0.0000
 2563OM     OM1 2563   1.120   1.207   9.237  0.0000  0.0000  0.0000
 2564OM     OM1 2564   8.540   0.642   9.302  0.0000  0.0000  0.0000
 2565OM     OM1 2565   8.675   0.506   9.488  0.0000  0.0000  0.0000
 2566OM     OM1 2566   8.417   0.492   9.486  0.0000  0.0000  0.0000
 2567OM     OM1 2567   3.425   8.993   1.000  0.0000  0.0000  0.0000
 2568OM     OM1 2568   3.482   8.953   1.252  0.0000  0.0000  0.0000
 2569OM     OM1 2569   3.564   9.172   1.128  0.0000  0.0000  0.0000
 2570OM     OM1 2570   3.669   8.939   1.072  0.0000  0.0000  0.0000
 2571OM     OM1 2571   1.106   9.266   0.321  0.0000  0.0000  0.0000
 2572OM     OM1 2572   1.224   9.087   0.168  0.0000  0.0000  0.0000
 2573OM     OM1 2573   1.174   8.871   0.019  0.0000  0.0000  0.0000
 2574OM     OM1 2574   4.540   4.800   0.030  0.0000  0.0000  0.0000
 2575OM     OM1 2575   4.746   4.674   0.120  0.0000  0.0000  0.0000
 2576OM     OM1 2576   4.680   4.652   9.468  0.0000  0.0000  0.0000
 2577OM     OM1 2577   4.541   4.538   0.049  0.0000  0.0000  0.0000
 2578OM     OM1 2578   8.155   4.542   9.445  0.0000  0.0000  0.0000
 2579OM     OM1 2579   8.411   4.494   9.488  0.0000  0.0000  0.0000
 2580OM     OM1 2580   8.288   4.645   0.052  0.0000  0.0000  0.0000
 2581OM     OM1 2581   9.289   2.309   8.471  0.0000  0.0000  0.0000
 2582OM     OM1 2582   9.551   2.338   8.428  0.0000  0.0000  0.0000
 2583OM     OM1 2583   7.972   3.179   0.954  0.0000  0.0000  0.0000
 2584OM     OM1 2584   7.808   3.562   1.239  0.0000  0.0000  0.0000
 2585OM     OM1 2585   7.901   3.414   1.051  0.0000  0.0000  0.0000
 2586OM     OM1 2586   7.985   3.668   1.070  0.0000  0.0000  0.0000
 2587OM     OM1 2587   1.725   2.693   8.275  0.0000  0.0000  0.0000
 2588OM     OM1 2588   1.914   2.632   8.448  0.0000  0.0000  0.0000
 2589OM     OM1 2589   4.825   4.073   1.203  0.0000  0.0000  0.0000
 2590OM     OM1 2590   4.632   4.239   1.122  0.0000  0.0000  0.0000
 2591OM     OM1 2591   4.570   4.027   1.251  0.0000  0.0000  0.0000
 2592OM     OM1 2592   1.761   0.405   8.787  0.0000  0.0000  0.0000
 2593OM     OM1 2593   1.773   0.143   8.734  0.0000  0.0000  0.0000
 2594OM     OM1 2594   1.546   0.245   8.791  0.0000  0.0000  0.0000
 2595OM     OM1 2595   4.899   9.048   8.566  0.0000  0.0000  0.0000
 2596OM     OM1 2596   5.026   9.222   8.716  0.0000  0.0000  0.0000
 2597OM     OM1 2597   5.020   8.973   8.783  0.0000  0.0000  0.0000
 2598OM     OM1 2598   5.233   4.749   0.126  0.0000  0.0000  0.0000
 2599OM     OM1 2599   5.058   4.933   0.078  0.0000  0.0000  0.0000
 2600OM     OM1 2600   4.982   4.726   0.209  0.0000  0.0000  0.0000
 2601OM     OM1 2601   5.034   4.699   9.560  0.0000  0.0000  0.0000
 2602OM     OM1 2602   5.269   5.771   8.363  0.0000  0.0000  0.0000
 2603OM     OM1 2603   5.072   5.615   8.426  0.0000  0.0000  0.0000
 2604OM     OM1 2604   7.073   1.566   8.322  0.0000  0.0000  0.0000
 2605OM     OM1 2605   6.852   1.655   8.210  0.0000  0.0000  0.0000
 2606OM     OM1 2606   3.088   7.838   0.878  0.0000  0.0000  0.0000
 2607OM     OM1 2607   3.002   7.601   0.889  0.0000  0.0000  0.0000
 2608OM     OM1 2608   3.302   7.820   0.744  0.0000  0.0000  0.0000
 2609OM     OM1 2609   3.109   7.966   0.637  0.0000  0.0000  0.0000
 2610OM     OM1 2610   7.397   5.794   0.467  0.0000  0.0000  0.0000
 2611OM     OM1 2611   7.202   5.669   0.380  0.0000  0.0000  0.0000
 2612OM     OM1 2612   7.406   5.686   0.219  0.0000  0.0000  0.0000
 2613OM     OM1 2613   0.156   1.217   9.467  0.0000  0.0000  0.0000
 2614OM     OM1 2614   0.394   1.107   9.440  0.0000  0.0000  0.0000
 2615OM     OM1 2615   0.186   0.976   9.558  0.0000  0.0000  0.0000
 2616OM     OM1 2616   9.366   9.217   0.866  0.0000  0.0000  0.0000
 2617OM     OM1 2617   9.285   9.414   1.007  0.0000  0.0000  0.0000
 2618OM     OM1 2618   9.536   9.404   0.905  0.0000  0.0000  0.0000
 2619OM     OM1 2619   8.544   7.391   0.911  0.0000  0.0000  0.0000
 2620OM     OM1 2620   8.459   7.444   1.154  0.0000  0.0000  0.0000
 2621OM     OM1 2621   8.470   7.628   0.973  0.0000  0.0000  0.0000
 2622OM     OM1 2622   8.694   7.538   1.075  0.0000  0.0000  0.0000
 2623OM     OM1 2623   6.161   6.643   8.328  0.0000  0.0000  0.0000
 2624OM     OM1 2624   6.030   6.464   8.204  0.0000  0.0000  0.0000
 2625OM     OM1 2625   0.393   9.274   0.308  0.0000  0.0000  0.0000
 2626OM     OM1 2626   0.765   9.022   0.210  0.0000  0.0000  0.0000
 2627OM     OM1 2627   0.612   9.221   0.173  0.0000  0.0000  0.0000
 2628OM     OM1 2628   0.806   9.171   0.000  0.0000  0.0000  0.0000
 2629OM     OM1 2629   6.118   2.656   8.579  0.0000  0.0000  0.0000
 2630OM     OM1 2630   6.295   2.515   8.710  0.0000  0.0000  0.0000
 2631OM     OM1 2631   6.183   2.710   8.822  0.0000  0.0000  0.0000
 2632OM     OM1 2632   4.802   1.424   0.911  0.0000  0.0000  0.0000
 2633OM     OM1 2633   4.871   1.251   1.103  0.0000  0.0000  0.0000
 2634OM     OM1 2634   4.627   1.327   1.085  0.0000  0.0000  0.0000
 2635OM     OM1 2635   4.731   1.181   0.889  0.0000  0.0000  0.0000
 2636OM     OM1 2636   7.068   1.206   0.600  0.0000  0.0000  0.0000
 2637OM     OM1 2637   6.813   1.249   0.544  0.0000  0.0000  0.0000
 2638OM     OM1 2638   6.884   1.077   0.735  0.0000  0.0000  0.0000
 2639OM     OM1 2639   6.914   1.342   0.761  0.0000  0.0000  0.0000
 2640OM     OM1 2640   3.310   0.469   0.878  0.0000  0.0000  0.0000
 2641OM     OM1 2641   3.062   0.560   0.950  0.0000  0.0000  0.0000
 2642OM     OM1 2642   3.166   0.633   0.732  0.0000  0.0000  0.0000
 2643OM     OM1 2643   3.271   0.714   0.961  0.0000  0.0000  0.0000
 2644OM     OM1 2644   0.108   5.133   0.062  0.0000  0.0000  0.0000
 2645OM     OM1 2645   0.056   5.375   0.002  0.0000  0.0000  0.0000
 2646OM     OM1 2646   0.286   5.261   9.529  0.0000  0.0000  0.0000
 2647OM     OM1 2647   3.981   5.084   8.736  0.0000  0.0000  0.0000
 2648OM     OM1 2648   3.895   5.305   8.636  0.0000  0.0000  0.0000
 2649OM     OM1 2649   3.868   5.480   8.824  0.0000  0.0000  0.0000
 2650OM     OM1 2650   4.151   5.263   8.646  0.0000  0.0000  0.0000
 2651OM     OM1 2651   5.665   3.317   8.131  0.0000  0.0000  0.0000
 2652OM     OM1 2652   5.438   3.197   8.173  0.0000  0.0000  0.0000
 2653OM     OM1 2653   5.651   3.147   8.321  0.0000  0.0000  0.0000
 2654OM     OM1 2654   4.350   7.839   0.291  0.0000  0.0000  0.0000
 2655OM     OM1 2655   4.504   7.644   0.215  0.0000  0.0000  0.0000
 2656OM     OM1 2656   4.248   7.672   0.127  0.0000  0.0000  0.0000
 2657OM     OM1 2657   4.447   7.831   0.050  0.0000  0.0000  0.0000
 2658OM     OM1 2658   4.971   8.322   0.180  0.0000  0.0000  0.0000
 2659OM     OM1 2659   5.014   8.555   0.044  0.0000  0.0000  0.0000
 2660OM     OM1 2660   7.011   9.153   0.256  0.0000  0.0000  0.0000
 2661OM     OM1 2661   6.986   8.988   0.061  0.0000  0.0000  0.0000
 2662OM     OM1 2662   7.081   9.226   0.008  0.0000  0.0000  0.0000
 2663OM     OM1 2663   6.831   9.186   0.057  0.0000  0.0000  0.0000
 2664OM     OM1 2664   7.169   8.333   9.194  0.0000  0.0000  0.0000
 2665OM     OM1 2665   7.186   8.486   9.402  0.0000  0.0000  0.0000
 2666OM     OM1 2666   0.244   4.590   8.496  0.0000  0.0000  0.0000
 2667OM     OM1 2667   0.171   4.339   8.456  0.0000  0.0000  0.0000
 2668OM     OM1 2668   6.385   6.741   9.029  0.0000  0.0000  0.0000
 2669OM     OM1 2669   6.645   6.746   9.083  0.0000  0.0000  0.0000
 2670OM     OM1 2670   6.529   6.527   9.032  0.0000  0.0000  0.0000
 2671OM     OM1 2671   6.589   6.703   8.842  0.0000  0.0000  0.0000
 2672OM     OM1 2672   0.372   1.432   0.578  0.0000  0.0000  0.0000
 2673OM     OM1 2673   0.595   1.528   0.688  0.0000  0.0000  0.0000
 2674OM     OM1 2674   0.596   1.297   0.573  0.0000  0.0000  0.0000
 2675OM     OM1 2675   0.561   1.524   0.430  0.0000  0.0000  0.0000
 2676OM     OM1 2676   2.694   3.351   9.088  0.0000  0.0000  0.0000
 2677OM     OM1 2677   2.443   3.361   9.167  0.0000  0.0000  0.0000
 2678OM     OM1 2678   2.561   3.127   9.123  0.0000  0.0000  0.0000
 2679OM     OM1 2679   2.633   3.263   9.329  0.0000  0.0000  0.0000
 2680OM     OM1 2680   7.910   0.971   9.310  0.0000  0.0000  0.0000
 2681OM     OM1 2681   7.939   0.759   9.452  0.0000  0.0000  0.0000
 2682OM     OM1 2682   7.896   0.735   9.192  0.0000  0.0000  0.0000
 2683OM     OM1 2683   7.784   0.496   9.147  0.0000  0.0000  0.0000
 2684OM     OM1 2684   5.127   5.663   1.155  0.0000  0.0000  0.0000
 2685OM     OM1 2685   4.907   5.592   1.011  0.0000  0.0000  0.0000
 2686OM     OM1 2686   5.033   5.837   1.008  0.0000  0.0000  0.0000
 2687OM     OM1 2687   5.129   5.625   0.892  0.0000  0.0000  0.0000
 2688OM     OM1 2688   5.881   3.420   8.577  0.0000  0.0000  0.0000
 2689OM     OM1 2689   5.630   3.453   8.588  0.0000  0.0000  0.0000
 2690OM     OM1 2690   5.762   3.412   8.350  0.0000  0.0000  0.0000
 2691OM     OM1 2691   5.771   3.634   8.462  0.0000  0.0000  0.0000
 2692OM     OM1 2692   4.449   5.179   0.686  0.0000  0.0000  0.0000
 2693OM     OM1 2693   4.530   4.942   0.748  0.0000  0.0000  0.0000
 2694OM     OM1 2694   4.316   5.041   0.864  0.0000  0.0000  0.0000
 2695OM     OM1 2695   4.305   4.965   0.619  0.0000  0.0000  0.0000
 2696OM     OM1 2696   0.826   2.632   1.024  0.0000  0.0000  0.0000
 2697OM     OM1 2697   0.576   2.689   1.116  0.0000  0.0000  0.0000
 2698OM     OM1 2698   0.685   2.463   1.145  0.0000  0.0000  0.0000
 2699OM     OM1 2699   8.120   2.984   1.054  0.0000  0.0000  0.0000
 2700OM     OM1 2700   8.174   3.236   1.097  0.0000  0.0000  0.0000
 2701OM     OM1 2701   8.205   3.139   0.853  0.0000  0.0000  0.0000
 2702OM     OM1 2702   0.260   5.789   0.121  0.0000  0.0000  0.0000
 2703OM     OM1 2703   0.415   5.590   0.131  0.0000  0.0000  0.0000
 2704OM     OM1 2704   0.245   5.628   0.329  0.0000  0.0000  0.0000
 2705OM     OM1 2705   0.452   5.773   0.315  0.0000  0.0000  0.0000
 2706OM     OM1 2706   0.596   0.711   8.635  0.0000  0.0000  0.0000
 2707OM     OM1 2707   0.447   0.493   8.668  0.0000  0.0000  0.0000
 2708OM     OM1 2708   0.642   0.504   8.495  0.0000  0.0000  0.0000
 2709OM     OM1 2709   7.998   8.468   9.592  0.0000  0.0000  0.0000
 2710OM     OM1 2710   8.087   8.525   9.336  0.0000  0.0000  0.0000
 2711OM     OM1 2711   7.866   8.607   9.411  0.0000  0.0000  0.0000
 2712OM     OM1 2712   7.896   8.348   9.397  0.0000  0.0000  0.0000
 2713OM     OM1 2713   8.549   4.156   8.648  0.0000  0.0000  0.0000
 2714OM     OM1 2714   8.477   3.906   8.572  0.0000  0.0000  0.0000
 2715OM     OM1 2715   8.691   4.025   8.486  0.0000  0.0000  0.0000
 2716OM     OM1 2716   8.440   4.119   8.422  0.0000  0.0000  0.0000
 2717OM     OM1 2717   6.826   5.138   9.327  0.0000  0.0000  0.0000
 2718OM     OM1 2718   6.613   5.300   9.294  0.0000  0.0000  0.0000
 2719OM     OM1 2719   6.849   5.362   9.206  0.0000  0.0000  0.0000
 2720OM     OM1 2720   6.796   5.347   9.471  0.0000  0.0000  0.0000
 2721OM     OM1 2721   8.767   2.100   8.988  0.0000  0.0000  0.0000
 2722OM     OM1 2722   8.534   2.223   9.002  0.0000  0.0000  0.0000
 2723OM     OM1 2723   8.537   1.963   8.977  0.0000  0.0000  0.0000
 2724OM     OM1 2724   8.621   2.117   8.776  0.0000  0.0000  0.0000
 2725OM     OM1 2725   9.104   5.444   0.133  0.0000  0.0000  0.0000
 2726OM     OM1 2726   9.281   5.404   0.318  0.0000  0.0000  0.0000
 2727OM     OM1 2727   9.062   5.253   0.304  0.0000  0.0000  0.0000
 2728OM     OM1 2728   9.262   5.236   0.130  0.0000  0.0000  0.0000
 2729OM     OM1 2729   7.476   3.361   8.366  0.0000  0.0000  0.0000
 2730OM     OM1 2730   7.415   3.506   8.167  0.0000  0.0000  0.0000
 2731OM     OM1 2731   7.660   3.504   8.246  0.0000  0.0000  0.0000
 2732OM     OM1 2732   9.252   1.592   1.179  0.0000  0.0000  0.0000
 2733OM     OM1 2733   9.516   1.578   1.144  0.0000  0.0000  0.0000
 2734OM     OM1 2734   9.350   1.484   0.962  0.0000  0.0000  0.0000
 2735OM     OM1 2735   2.643   7.723   0.690  0.0000  0.0000  0.0000
 2736OM     OM1 2736   2.776   7.815   0.472  0.0000  0.0000  0.0000
 2737OM     OM1 2737   2.712   7.566   0.505  0.0000  0.0000  0.0000
 2738OM     OM1 2738   3.270   0.016   8.692  0.0000  0.0000  0.0000
 2739OM     OM1 2739   3.166   0.241   8.768  0.0000  0.0000  0.0000
 2740OM     OM1 2740   3.024   0.036   8.792  0.0000  0.0000  0.0000
 2741OM     OM1 2741   3.078   0.116   8.548  0.0000  0.0000  0.0000
 2742OM     OM1 2742   0.999   1.658   8.810  0.0000  0.0000  0.0000
 2743OM     OM1 2743   1.163   1.723   8.987  0.0000  0.0000  0.0000
 2744OM     OM1 2744   1.258   1.659   8.745  0.0000  0.0000  0.0000
 2745OM     OM1 2745   1.162   1.472   8.887  0.0000  0.0000  0.0000
 2746OM     OM1 2746   6.893   5.100   1.085  0.0000  0.0000  0.0000
 2747OM     OM1 2747   7.152   5.122   1.070  0.0000  0.0000  0.0000
 2748OM     OM1 2748   7.017   5.340   1.106  0.0000  0.0000  0.0000
 2749OM     OM1 2749   6.388   0.935   9.488  0.0000  0.0000  0.0000
 2750OM     OM1 2750   6.134   0.994   9.422  0.0000  0.0000  0.0000
 2751OM     OM1 2751   6.293   0.884   9.256  0.0000  0.0000  0.0000
 2752OM     OM1 2752   6.218   0.740   9.454  0.0000  0.0000  0.0000
 2753OM     OM1 2753   8.319   7.036   8.667  0.0000  0.0000  0.0000
 2754OM     OM1 2754   8.117   6.819   8.519  0.0000  0.0000  0.0000
 2755OM     OM1 2755   8.369   6.813   8.794  0.0000  0.0000  0.0000
 2756OM     OM1 2756   8.369   6.816   8.540  0.0000  0.0000  0.0000
 2757OM     OM1 2757   9.226   7.916   9.506  0.0000  0.0000  0.0000
 2758OM     OM1 2758   9.176   7.730   0.073  0.0000  0.0000  0.0000
 2759OM     OM1 2759   9.416   7.824   0.085  0.0000  0.0000  0.0000
 2760OM     OM1 2760   9.221   7.975   0.152  0.0000  0.0000  0.0000
 2761OM     OM1 2761   4.083   1.051   0.572  0.0000  0.0000  0.0000
 2762OM     OM1 2762   3.948   1.265   0.524  0.0000  0.0000  0.0000
 2763OM     OM1 2763   4.218   1.276   0.568  0.0000  0.0000  0.0000
 2764OM     OM1 2764   4.476   5.035   8.886  0.0000  0.0000  0.0000
 2765OM     OM1 2765   4.734   5.053   8.819  0.0000  0.0000  0.0000
 2766OM     OM1 2766   4.611   4.828   8.785  0.0000  0.0000  0.0000
 2767OM     OM1 2767   4.655   4.917   9.025  0.0000  0.0000  0.0000
 2768OM     OM1 2768   0.741   2.173   0.854  0.0000  0.0000  0.0000
 2769OM     OM1 2769   0.873   1.991   1.013  0.0000  0.0000  0.0000
 2770OM     OM1 2770   0.616   2.004   0.997  0.0000  0.0000  0.0000
 2771OM     OM1 2771   0.556   3.723   0.905  0.0000  0.0000  0.0000
 2772OM     OM1 2772   0.537   3.329   0.938  0.0000  0.0000  0.0000
 2773OM     OM1 2773   0.376   3.523   0.953  0.0000  0.0000  0.0000
 2774OM     OM1 2774   0.485   3.549   0.722  0.0000  0.0000  0.0000
 2775OM     OM1 2775   3.895   3.259   8.402  0.0000  0.0000  0.0000
 2776OM     OM1 2776   4.119   3.133   8.400  0.0000  0.0000  0.0000
 2777OM     OM1 2777   1.801   6.107   9.246  0.0000  0.0000  0.0000
 2778OM     OM1 2778   1.688   6.046   9.018  0.0000  0.0000  0.0000
 2779OM     OM1 2779   1.756   5.852   9.188  0.0000  0.0000  0.0000
 2780OM     OM1 2780   9.510   3.602   1.091  0.0000  0.0000  0.0000
 2781OM     OM1 2781   0.051   3.662   0.881  0.0000  0.0000  0.0000
 2782OM     OM1 2782   9.461   3.492   0.856  0.0000  0.0000  0.0000
 2783OM     OM1 2783   9.405   3.742   0.883  0.0000  0.0000  0.0000
 2784OM     OM1 2784   9.039   4.329   0.529  0.0000  0.0000  0.0000
 2785OM     OM1 2785   8.822   4.411   0.666  0.0000  0.0000  0.0000
 2786OM     OM1 2786   8.851   4.166   0.569  0.0000  0.0000  0.0000
 2787OM     OM1 2787   8.820   4.374   0.407  0.0000  0.0000  0.0000
 2788OM     OM1 2788   6.954   6.876   0.731  0.0000  0.0000  0.0000
 2789OM     OM1 2789   6.936   6.887   0.474  0.0000  0.0000  0.0000
 2790OM     OM1 2790   6.945   6.660   0.598  0.0000  0.0000  0.0000
 2791OM     OM1 2791   1.628   4.024   0.404  0.0000  0.0000  0.0000
 2792OM     OM1 2792   1.452   3.897   0.255  0.0000  0.0000  0.0000
 2793OM     OM1 2793   1.464   4.084   0.594  0.0000  0.0000  0.0000
 2794OM     OM1 2794   3.576   2.191   9.530  0.0000  0.0000  0.0000
 2795OM     OM1 2795   3.615   2.347   0.129  0.0000  0.0000  0.0000
 2796OM     OM1 2796   3.486   2.135   0.167  0.0000  0.0000  0.0000
 2797OM     OM1 2797   3.520   2.579   0.095  0.0000  0.0000  0.0000
 2798OM     OM1 2798   6.872   6.625   0.274  0.0000  0.0000  0.0000
 2799OM     OM1 2799   7.046   6.509   0.413  0.0000  0.0000  0.0000
 2800OM     OM1 2800   2.770   7.336   8.821  0.0000  0.0000  0.0000
 2801OM     OM1 2801   2.569   7.234   8.949  0.0000  0.0000  0.0000
 2802OM     OM1 2802   2.549   7.418   8.725  0.0000  0.0000  0.0000
 2803OM     OM1 2803   0.123   9.412   0.565  0.0000  0.0000  0.0000
 2804OM     OM1 2804   0.373   9.415   0.655  0.0000  0.0000  0.0000
 2805OM     OM1 2805   0.182   9.457   0.815  0.0000  0.0000  0.0000
 2806OM     OM1 2806   3.676   4.936   0.200  0.0000  0.0000  0.0000
 2807OM     OM1 2807   3.526   5.148   0.207  0.0000  0.0000  0.0000
 2808OM     OM1 2808   3.692   5.132   0.023  0.0000  0.0000  0.0000
 2809OM     OM1 2809   3.494   4.958   0.014  0.0000  0.0000  0.0000
 2810OM     OM1 2810   5.179   3.371   8.782  0.0000  0.0000  0.0000
 2811OM     OM1 2811   5.135   3.627   8.797  0.0000  0.0000  0.0000
 2812OM     OM1 2812   4.935   3.462   8.777  0.0000  0.0000  0.0000
 2813OM     OM1 2813   5.068   3.484   9.003  0.0000  0.0000  0.0000
 2814OM     OM1 2814   8.307   7.714   8.738  0.0000  0.0000  0.0000
 2815OM     OM1 2815   8.372   7.666   9.038  0.0000  0.0000  0.0000
 2816OM     OM1 2816   8.467   7.558   8.606  0.0000  0.0000  0.0000
 2817OM     OM1 2817   8.628   7.682   9.036  0.0000  0.0000  0.0000
 2818OM     OM1 2818   7.649   5.705   9.353  0.0000  0.0000  0.0000
 2819OM     OM1 2819   7.768   5.545   9.529  0.0000  0.0000  0.0000
 2820OM     OM1 2820   7.895   5.728   9.396  0.0000  0.0000  0.0000
 2821OM     OM1 2821   7.808   5.511   9.272  0.0000  0.0000  0.0000
 2822OM     OM1 2822   5.842   2.172   8.559  0.0000  0.0000  0.0000
 2823OM     OM1 2823   6.003   1.988   8.673  0.0000  0.0000  0.0000
 2824OM     OM1 2824   5.835   2.135   8.809  0.0000  0.0000  0.0000
 2825OM     OM1 2825   2.693   1.559   0.324  0.0000  0.0000  0.0000
 2826OM     OM1 2826   2.527   1.753   0.266  0.0000  0.0000  0.0000
 2827OM     OM1 2827   2.468   1.507   0.197  0.0000  0.0000  0.0000
 2828OM     OM1 2828   2.656   1.642   0.073  0.0000  0.0000  0.0000
 2829OM     OM1 2829   5.955   9.271   0.311  0.0000  0.0000  0.0000
 2830OM     OM1 2830   5.901   9.510   0.241  0.0000  0.0000  0.0000
 2831OM     OM1 2831   5.711   9.327   0.226  0.0000  0.0000  0.0000
 2832OM     OM1 2832   9.100   8.616   0.956  0.0000  0.0000  0.0000
 2833OM     OM1 2833   8.999   8.834   0.836  0.0000  0.0000  0.0000
 2834OM     OM1 2834   4.538   0.145   9.426  0.0000  0.0000  0.0000
 2835OM     OM1 2835   4.770   0.016   9.499  0.0000  0.0000  0.0000
 2836OM     OM1 2836   4.733   0.278   9.520  0.0000  0.0000  0.0000
 2837OM     OM1 2837   6.544   6.261   1.167  0.0000  0.0000  0.0000
 2838OM     OM1 2838   6.650   6.445   1.018  0.0000  0.0000  0.0000
 2839OM     OM1 2839   6.746   6.377   1.254  0.0000  0.0000  0.0000
 2840OM     OM1 2840   8.261   0.523   0.496  0.0000  0.0000  0.0000
 2841OM     OM1 2841   8.526   0.502   0.470  0.0000  0.0000  0.0000
 2842OM     OM1 2842   8.423   0.723   0.555  0.0000  0.0000  0.0000
 2843OM     OM1 2843   8.418   0.511   0.705  0.0000  0.0000  0.0000
 2844OM     OM1 2844   4.572   7.443   0.371  0.0000  0.0000  0.0000
 2845OM     OM1 2845   4.493   7.190   0.338  0.0000  0.0000  0.0000
 2846OM     OM1 2846   4.333   7.357   0.463  0.0000  0.0000  0.0000
 2847OM     OM1 2847   4.381   7.391   0.218  0.0000  0.0000  0.0000
 2848OM     OM1 2848   1.526   4.062   9.559  0.0000  0.0000  0.0000
 2849OM     OM1 2849   1.587   4.251   9.398  0.0000  0.0000  0.0000
 2850OM     OM1 2850   1.773   4.109   9.508  0.0000  0.0000  0.0000
 2851OM     OM1 2851   1.441   2.650   8.794  0.0000  0.0000  0.0000
 2852OM     OM1 2852   1.525   2.719   8.565  0.0000  0.0000  0.0000
 2853OM     OM1 2853   1.655   2.533   8.700  0.0000  0.0000  0.0000
 2854OM     OM1 2854   0.295   1.980   0.713  0.0000  0.0000  0.0000
 2855OM     OM1 2855   0.143   2.128   0.553  0.0000  0.0000  0.0000
 2856OM     OM1 2856   0.219   1.891   0.492  0.0000  0.0000  0.0000
 2857OM     OM1 2857   8.259   2.152   1.070  0.0000  0.0000  0.0000
 2858OM     OM1 2858   6.469   2.866   0.628  0.0000  0.0000  0.0000
 2859OM     OM1 2859   6.243   2.731   0.665  0.0000  0.0000  0.0000
 2860OM     OM1 2860   6.387   2.797   0.869  0.0000  0.0000  0.0000
 2861OM     OM1 2861   6.483   2.730   0.420  0.0000  0.0000  0.0000
 2862OM     OM1 2862   9.255   6.828   8.822  0.0000  0.0000  0.0000
 2863OM     OM1 2863   9.240   6.633   8.668  0.0000  0.0000  0.0000
 2864OM     OM1 2864   1.614   3.420   0.690  0.0000  0.0000  0.0000
 2865OM     OM1 2865   1.637   3.362   0.447  0.0000  0.0000  0.0000
 2866OM     OM1 2866   1.650   3.147   0.299  0.0000  0.0000  0.0000
 2867OM     OM1 2867   4.598   2.154   8.844  0.0000  0.0000  0.0000
 2868OM     OM1 2868   4.835   2.220   8.749  0.0000  0.0000  0.0000
 2869OM     OM1 2869   4.733   1.998   8.688  0.0000  0.0000  0.0000
 2870OM     OM1 2870   4.813   2.041   8.945  0.0000  0.0000  0.0000
 2871OM     OM1 2871   7.311   4.800   0.295  0.0000  0.0000  0.0000
 2872OM     OM1 2872   7.424   4.668   0.482  0.0000  0.0000  0.0000
 2873OM     OM1 2873   7.351   4.538   0.263  0.0000  0.0000  0.0000
 2874OM     OM1 2874   1.983   4.139   1.020  0.0000  0.0000  0.0000
 2875OM     OM1 2875   1.726   4.197   1.016  0.0000  0.0000  0.0000
 2876OM     OM1 2876   1.800   3.948   1.073  0.0000  0.0000  0.0000
 2877OM     OM1 2877   1.703   0.809   0.317  0.0000  0.0000  0.0000
 2878OM     OM1 2878   1.645   0.918   0.082  0.0000  0.0000  0.0000
 2879OM     OM1 2879   1.793   0.706   0.097  0.0000  0.0000  0.0000
 2880OM     OM1 2880   1.789   0.324   0.635  0.0000  0.0000  0.0000
 2881OM     OM1 2881   1.983   0.408   0.492  0.0000  0.0000  0.0000
 2882OM     OM1 2882   1.867   0.191   0.409  0.0000  0.0000  0.0000
 2883OM     OM1 2883   2.011   0.198   0.635  0.0000  0.0000  0.0000
 2884OM     OM1 2884   2.652   5.651   8.263  0.0000  0.0000  0.0000
 2885OM     OM1 2885   2.738   5.802   8.452  0.0000  0.0000  0.0000
 2886OM     OM1 2886   1.225   7.603   8.968  0.0000  0.0000  0.0000
 2887OM     OM1 2887   1.270   7.789   9.148  0.0000  0.0000  0.0000
 2888OM     OM1 2888   1.379   7.812   8.923  0.0000  0.0000  0.0000
 2889OM     OM1 2889   9.048   1.571   8.361  0.0000  0.0000  0.0000
 2890OM     OM1 2890   9.291   1.629   8.420  0.0000  0.0000  0.0000
 2891OM     OM1 2891   9.095   1.788   8.501  0.0000  0.0000  0.0000
 2892OM     OM1 2892   3.707   7.253   0.965  0.0000  0.0000  0.0000
 2893OM     OM1 2893   3.718   7.078   1.149  0.0000  0.0000  0.0000
 2894OM     OM1 2894   3.697   6.773   0.961  0.0000  0.0000  0.0000
 2895OM     OM1 2895   3.765   7.009   0.897  0.0000  0.0000  0.0000
 2896OM     OM1 2896   6.590   4.970   8.631  0.0000  0.0000  0.0000
 2897OM     OM1 2897   6.646   4.722   8.736  0.0000  0.0000  0.0000
 2898OM     OM1 2898   6.493   4.746   8.534  0.0000  0.0000  0.0000
 2899OM     OM1 2899   6.748   4.794   8.513  0.0000  0.0000  0.0000
 2900OM     OM1 2900   7.717   0.955   0.091  0.0000  0.0000  0.0000
 2901OM     OM1 2901   7.769   0.713   0.059  0.0000  0.0000  0.0000
 2902OM     OM1 2902   7.767   0.806   0.304  0.0000  0.0000  0.0000
 2903OM     OM1 2903   9.225   4.100   0.113  0.0000  0.0000  0.0000
 2904OM     OM1 2904   8.968   4.059   0.118  0.0000  0.0000  0.0000
 2905OM     OM1 2905   9.079   4.231   0.288  0.0000  0.0000  0.0000
 2906OM     OM1 2906   0.548   7.440   8.561  0.0000  0.0000  0.0000
 2907OM     OM1 2907   0.819   7.502   8.877  0.0000  0.0000  0.0000
 2908OM     OM1 2908   0.573   7.544   8.803  0.0000  0.0000  0.0000
 2909OM     OM1 2909   4.297   8.783   9.402  0.0000  0.0000  0.0000
 2910OM     OM1 2910   4.160   8.581   9.482  0.0000  0.0000  0.0000
 2911OM     OM1 2911   4.041   8.804   9.451  0.0000  0.0000  0.0000
 2912OM     OM1 2912   0.404   2.081   1.130  0.0000  0.0000  0.0000
 2913OM     OM1 2913   0.632   2.197   1.172  0.0000  0.0000  0.0000
 2914OM     OM1 2914   0.589   1.945   1.252  0.0000  0.0000  0.0000
 2915OM     OM1 2915   6.633   8.414   9.541  0.0000  0.0000  0.0000
 2916OM     OM1 2916   6.757   8.286   0.126  0.0000  0.0000  0.0000
 2917OM     OM1 2917   6.651   8.153   9.531  0.0000  0.0000  0.0000
 2918OM     OM1 2918   4.371   0.115   9.224  0.0000  0.0000  0.0000
 2919OM     OM1 2919   4.390   9.548   9.415  0.0000  0.0000  0.0000
 2920OM     OM1 2920   4.274   0.184   9.453  0.0000  0.0000  0.0000
 2921OM     OM1 2921   6.233   8.581   1.356  0.0000  0.0000  0.0000
 2922OM     OM1 2922   6.137   8.769   1.205  0.0000  0.0000  0.0000
 2923OM     OM1 2923   4.931   8.349   8.864  0.0000  0.0000  0.0000
 2924OM     OM1 2924   4.984   8.095   8.824  0.0000  0.0000  0.0000
 2925OM     OM1 2925   4.741   8.179   8.867  0.0000  0.0000  0.0000
 2926OM     OM1 2926   4.919   8.168   9.060  0.0000  0.0000  0.0000
 2927OM     OM1 2927   1.763   6.175   8.642  0.0000  0.0000  0.0000
 2928OM     OM1 2928   1.942   6.066   8.493  0.0000  0.0000  0.0000
 2929OM     OM1 2929   1.774   5.914   8.628  0.0000  0.0000  0.0000
 2930OM     OM1 2930   1.973   6.037   8.744  0.0000  0.0000  0.0000
 2931OM     OM1 2931   3.113   0.210   9.256  0.0000  0.0000  0.0000
 2932OM     OM1 2932   3.099   9.582   9.138  0.0000  0.0000  0.0000
 2933OM     OM1 2933   3.213   0.180   9.021  0.0000  0.0000  0.0000
 2934OM     OM1 2934   4.562   8.577   9.532  0.0000  0.0000  0.0000
 2935OM     OM1 2935   4.802   8.670   9.545  0.0000  0.0000  0.0000
 2936OM     OM1 2936   4.601   8.840   9.538  0.0000  0.0000  0.0000
 2937OM     OM1 2937   8.617   7.440   0.132  0.0000  0.0000  0.0000
 2938OM     OM1 2938   8.382   7.385   0.216  0.0000  0.0000  0.0000
 2939OM     OM1 2939   8.557   7.526   0.367  0.0000  0.0000  0.0000
 2940OM     OM1 2940   4.861   6.834   0.817  0.0000  0.0000  0.0000
 2941OM     OM1 2941   4.650   6.876   0.695  0.0000  0.0000  0.0000
 2942OM     OM1 2942   4.707   6.627   0.774  0.0000  0.0000  0.0000
 2943OM     OM1 2943   4.842   7.023   0.576  0.0000  0.0000  0.0000
 2944OM     OM1 2944   8.721   3.208   8.463  0.0000  0.0000  0.0000
 2945OM     OM1 2945   8.468   3.189   8.403  0.0000  0.0000  0.0000
 2946OM     OM1 2946   8.579   3.424   8.415  0.0000  0.0000  0.0000
 2947OM     OM1 2947   7.648   6.963   0.513  0.0000  0.0000  0.0000
 2948OM     OM1 2948   7.851   6.865   0.392  0.0000  0.0000  0.0000
 2949OM     OM1 2949   7.709   6.712   0.563  0.0000  0.0000  0.0000
 2950OM     OM1 2950   7.859   6.890   0.657  0.0000  0.0000  0.0000
 2951OM     OM1 2951   3.448   5.127   8.760  0.0000  0.0000  0.0000
 2952OM     OM1 2952   3.594   5.140   8.526  0.0000  0.0000  0.0000
 2953OM     OM1 2953   3.346   5.074   8.533  0.0000  0.0000  0.0000
 2954OM     OM1 2954   3.511   4.911   8.651  0.0000  0.0000  0.0000
 2955OM     OM1 2955   1.748   1.769   0.029  0.0000  0.0000  0.0000
 2956OM     OM1 2956   1.688   1.775   0.298  0.0000  0.0000  0.0000
 2957OM     OM1 2957   1.854   1.605   0.206  0.0000  0.0000  0.0000
 2958OM     OM1 2958   2.863   5.959   9.231  0.0000  0.0000  0.0000
 2959OM     OM1 2959   2.654   5.917   9.080  0.0000  0.0000  0.0000
 2960OM     OM1 2960   2.750   5.726   9.226  0.0000  0.0000  0.0000
 2961OM     OM1 2961   2.888   5.791   9.022  0.0000  0.0000  0.0000
 2962OM     OM1 2962   2.225   8.915   0.975  0.0000  0.0000  0.0000
 2963OM     OM1 2963   2.186   9.009   1.234  0.0000  0.0000  0.0000
 2964OM     OM1 2964   2.415   9.023   1.103  0.0000  0.0000  0.0000
 2965OM     OM1 2965   2.323   8.796   1.179  0.0000  0.0000  0.0000
 2966OM     OM1 2966   7.827   6.569   9.015  0.0000  0.0000  0.0000
 2967OM     OM1 2967   7.637   6.768   8.999  0.0000  0.0000  0.0000
 2968OM     OM1 2968   7.670   6.607   9.206  0.0000  0.0000  0.0000
 2969OM     OM1 2969   7.567   6.519   8.986  0.0000  0.0000  0.0000
 2970OM     OM1 2970   5.045   9.478   0.884  0.0000  0.0000  0.0000
 2971OM     OM1 2971   5.173   9.241   0.844  0.0000  0.0000  0.0000
 2972OM     OM1 2972   5.178   8.978   0.848  0.0000  0.0000  0.0000
 2973OM     OM1 2973   5.301   9.460   0.903  0.0000  0.0000  0.0000
 2974OM     OM1 2974   7.299   3.282   0.169  0.0000  0.0000  0.0000
 2975OM     OM1 2975   7.297   3.533   0.251  0.0000  0.0000  0.0000
 2976OM     OM1 2976   7.122   3.360   0.345  0.0000  0.0000  0.0000
 2977OM     OM1 2977   7.108   3.447   0.101  0.0000  0.0000  0.0000
 2978OM     OM1 2978   2.500   8.963   0.009  0.0000  0.0000  0.0000
 2979OM     OM1 2979   2.350   9.125   0.161  0.0000  0.0000  0.0000
 2980OM     OM1 2980   2.246   8.945   0.008  0.0000  0.0000  0.0000
 2981OM     OM1 2981   2.388   8.878   0.232  0.0000  0.0000  0.0000
 2982OM     OM1 2982   6.745   4.843   0.131  0.0000  0.0000  0.0000
 2983OM     OM1 2983   6.713   4.589   0.058  0.0000  0.0000  0.0000
 2984OM     OM1 2984   6.556   4.787   9.576  0.0000  0.0000  0.0000
 2985OM     OM1 2985   6.811   4.767   9.502  0.0000  0.0000  0.0000
 2986OM     OM1 2986   3.918   3.702   8.292  0.0000  0.0000  0.0000
 2987OM     OM1 2987   4.024   3.569   8.490  0.0000  0.0000  0.0000
 2988OM     OM1 2988   4.149   3.764   8.374  0.0000  0.0000  0.0000
 2989OM     OM1 2989   7.120   1.402   8.515  0.0000  0.0000  0.0000
 2990OM     OM1 2990   7.274   1.415   8.301  0.0000  0.0000  0.0000
 2991OM     OM1 2991   7.089   1.785   8.206  0.0000  0.0000  0.0000
 2992OM     OM1 2992   2.389   2.306   8.825  0.0000  0.0000  0.0000
 2993OM     OM1 2993   2.494   2.352   8.592  0.0000  0.0000  0.0000
 2994OM     OM1 2994   2.394   2.106   8.658  0.0000  0.0000  0.0000
 2995OM     OM1 2995   2.248   2.326   8.607  0.0000  0.0000  0.0000
 2996OM     OM1 2996   2.989   2.391   1.142  0.0000  0.0000  0.0000
 2997OM     OM1 2997   2.734   2.366   1.178  0.0000  0.0000  0.0000
 2998OM     OM1 2998   4.098   2.545   8.862  0.0000  0.0000  0.0000
 2999OM     OM1 2999   4.058   2.573   9.109  0.0000  0.0000  0.0000
 3000OM     OM1 3000   4.303   2.526   9.019  0.0000  0.0000  0.0000
 3001OM     OM1 3001   4.141   2.329   9.012  0.0000  0.0000  0.0000
 3002OM     OM1 3002   9.428   8.730   8.931  0.0000  0.0000  0.0000
 3003OM     OM1 3003   9.507   8.971   8.888  0.0000  0.0000  0.0000
 3004OM     OM1 3004   3.899   3.320   0.939  0.0000  0.0000  0.0000
 3005OM     OM1 3005   3.859   3.049   0.888  0.0000  0.0000  0.0000
 3006OM     OM1 3006   4.096   3.161   0.891  0.0000  0.0000  0.0000
 3007OM     OM1 3007   5.646   3.940   0.584  0.0000  0.0000  0.0000
 3008OM     OM1 3008   6.074   3.786   0.515  0.0000  0.0000  0.0000
 3009OM     OM1 3009   5.640   3.683   0.532  0.0000  0.0000  0.0000
 3010OM     OM1 3010   5.829   3.828   0.428  0.0000  0.0000  0.0000
 3011OM     OM1 3011   1.667   2.363   1.173  0.0000  0.0000  0.0000
 3012OM     OM1 3012   1.453   2.328   1.026  0.0000  0.0000  0.0000
 3013OM     OM1 3013   1.454   2.266   1.289  0.0000  0.0000  0.0000
 3014OM     OM1 3014   1.460   2.514   1.200  0.0000  0.0000  0.0000
 3015OM     OM1 3015   6.127   0.493   9.485  0.0000  0.0000  0.0000
 3016OM     OM1 3016   5.911   0.357   9.408  0.0000  0.0000  0.0000
 3017OM     OM1 3017   6.112   0.236   9.539  0.0000  0.0000  0.0000
 3018OM     OM1 3018   2.685   0.933   8.739  0.0000  0.0000  0.0000
 3019OM     OM1 3019   2.545   0.743   8.839  0.0000  0.0000  0.0000
 3020OM     OM1 3020   2.786   0.698   8.715  0.0000  0.0000  0.0000
 3021OM     OM1 3021   2.572   0.748   8.577  0.0000  0.0000  0.0000
 3022OM     OM1 3022   5.996   8.061   0.162  0.0000  0.0000  0.0000
 3023OM     OM1 3023   6.237   8.161   0.121  0.0000  0.0000  0.0000
 3024OM     OM1 3024   6.052   8.189   9.545  0.0000  0.0000  0.0000
 3025OM     OM1 3025   5.575   6.368   0.341  0.0000  0.0000  0.0000
 3026OM     OM1 3026   5.398   6.462   0.497  0.0000  0.0000  0.0000
 3027OM     OM1 3027   5.633   6.569   0.488  0.0000  0.0000  0.0000
 3028OM     OM1 3028   5.597   6.324   0.597  0.0000  0.0000  0.0000
 3029OM     OM1 3029   7.039   3.877   8.668  0.0000  0.0000  0.0000
 3030OM     OM1 3030   6.928   3.969   8.897  0.0000  0.0000  0.0000
 3031OM     OM1 3031   6.989   4.121   8.682  0.0000  0.0000  0.0000
 3032OM     OM1 3032   7.168   4.031   8.851  0.0000  0.0000  0.0000
 3033OM     OM1 3033   6.154   6.267   1.174  0.0000  0.0000  0.0000
 3034OM     OM1 3034   5.944   6.231   1.333  0.0000  0.0000  0.0000
 3035OM     OM1 3035   6.081   6.444   1.343  0.0000  0.0000  0.0000
 3036OM     OM1 3036   5.118   8.853   8.991  0.0000  0.0000  0.0000
 3037OM     OM1 3037   5.175   8.756   8.763  0.0000  0.0000  0.0000
 3038OM     OM1 3038   5.275   8.996   8.833  0.0000  0.0000  0.0000
 3039OM     OM1 3039   0.063   3.937   1.255  0.0000  0.0000  0.0000
 3040OM     OM1 3040   0.125   4.145   1.129  0.0000  0.0000  0.0000
 3041OM     OM1 3041   9.529   4.160   1.300  0.0000  0.0000  0.0000
 3042OM     OM1 3042   8.670   1.251   1.210  0.0000  0.0000  0.0000
 3043OM     OM1 3043   1.194   2.398   9.121  0.0000  0.0000  0.0000
 3044OM     OM1 3044   1.203   2.222   8.929  0.0000  0.0000  0.0000
 3045OM     OM1 3045   1.020   2.405   8.926  0.0000  0.0000  0.0000
 3046OM     OM1 3046   1.311   2.333   9.342  0.0000  0.0000  0.0000
 3047OM     OM1 3047   2.332   3.811   1.242  0.0000  0.0000  0.0000
 3048OM     OM1 3048   2.366   4.057   1.284  0.0000  0.0000  0.0000
 3049OM     OM1 3049   3.489   5.383   0.318  0.0000  0.0000  0.0000
 3050OM     OM1 3050   3.233   5.356   0.333  0.0000  0.0000  0.0000
 3051OM     OM1 3051   3.328   5.595   0.289  0.0000  0.0000  0.0000
 3052OM     OM1 3052   3.371   5.471   0.525  0.0000  0.0000  0.0000
 3053OM     OM1 3053   2.237   3.793   0.040  0.0000  0.0000  0.0000
 3054OM     OM1 3054   2.314   3.653   0.250  0.0000  0.0000  0.0000
 3055OM     OM1 3055   2.066   3.692   0.198  0.0000  0.0000  0.0000
 3056OM     OM1 3056   4.430   7.373   8.649  0.0000  0.0000  0.0000
 3057OM     OM1 3057   4.362   7.639   8.848  0.0000  0.0000  0.0000
 3058OM     OM1 3058   7.393   5.450   0.884  0.0000  0.0000  0.0000
 3059OM     OM1 3059   7.501   5.351   1.097  0.0000  0.0000  0.0000
 3060OM     OM1 3060   7.527   5.237   0.867  0.0000  0.0000  0.0000
 3061OM     OM1 3061   9.021   6.962   0.008  0.0000  0.0000  0.0000
 3062OM     OM1 3062   8.766   6.975   0.080  0.0000  0.0000  0.0000
 3063OM     OM1 3063   9.164   9.323   8.749  0.0000  0.0000  0.0000
 3064OM     OM1 3064   8.956   9.474   8.757  0.0000  0.0000  0.0000
 3065OM     OM1 3065   9.206   9.567   8.810  0.0000  0.0000  0.0000
 3066OM     OM1 3066   9.131   9.523   8.568  0.0000  0.0000  0.0000
 3067OM     OM1 3067   3.970   9.393   9.388  0.0000  0.0000  0.0000
 3068OM     OM1 3068   4.158   9.446   9.205  0.0000  0.0000  0.0000
 3069OM     OM1 3069   4.093   0.017   9.397  0.0000  0.0000  0.0000
 3070OM     OM1 3070   8.990   6.205   8.656  0.0000  0.0000  0.0000
 3071OM     OM1 3071   9.140   6.223   8.444  0.0000  0.0000  0.0000
 3072OM     OM1 3072   8.962   6.413   8.496  0.0000  0.0000  0.0000
 3073OM     OM1 3073   9.177   6.381   8.647  0.0000  0.0000  0.0000
 3074OM     OM1 3074   5.456   7.391   0.140  0.0000  0.0000  0.0000
 3075OM     OM1 3075   5.663   7.466   0.016  0.0000  0.0000  0.0000
 3076OM     OM1 3076   5.655   7.452   0.288  0.0000  0.0000  0.0000
 3077OM     OM1 3077   0.778   1.561   0.299  0.0000  0.0000  0.0000
 3078OM     OM1 3078   0.639   1.770   0.365  0.0000  0.0000  0.0000
 3079OM     OM1 3079   0.550   1.607   0.177  0.0000  0.0000  0.0000
 3080OM     OM1 3080   9.454   0.218   0.781  0.0000  0.0000  0.0000
 3081OM     OM1 3081   9.393   0.328   0.559  0.0000  0.0000  0.0000
 3082OM     OM1 3082   4.129   6.965   0.163  0.0000  0.0000  0.0000
 3083OM     OM1 3083   4.211   6.773   0.304  0.0000  0.0000  0.0000
 3084OM     OM1 3084   9.482   9.220   8.786  0.0000  0.0000  0.0000
 3085OM     OM1 3085   0.274   9.262   8.872  0.0000  0.0000  0.0000
 3086OM     OM1 3086   0.056   9.395   8.848  0.0000  0.0000  0.0000
 3087OM     OM1 3087   6.214   8.844   8.787  0.0000  0.0000  0.0000
 3088OM     OM1 3088   6.056   9.048   8.805  0.0000  0.0000  0.0000
 3089OM     OM1 3089   6.179   9.002   8.576  0.0000  0.0000  0.0000
 3090OM     OM1 3090   1.838   7.817   0.353  0.0000  0.0000  0.0000
 3091OM     OM1 3091   2.038   7.928   0.474  0.0000  0.0000  0.0000
 3092OM     OM1 3092   1.803   8.036   0.500  0.0000  0.0000  0.0000
 3093OM     OM1 3093   1.914   8.053   0.271  0.0000  0.0000  0.0000
 3094OM     OM1 3094   2.850   0.877   0.239  0.0000  0.0000  0.0000
 3095OM     OM1 3095   3.108   0.836   0.202  0.0000  0.0000  0.0000
 3096OM     OM1 3096   2.964   0.889   9.605  0.0000  0.0000  0.0000
 3097OM     OM1 3097   5.138   3.888   0.554  0.0000  0.0000  0.0000
 3098OM     OM1 3098   5.314   4.037   0.659  0.0000  0.0000  0.0000
 3099OM     OM1 3099   5.121   3.959   0.806  0.0000  0.0000  0.0000
 3100OM     OM1 3100   1.480   1.687   8.298  0.0000  0.0000  0.0000
 3101OM     OM1 3101   1.431   1.425   8.316  0.0000  0.0000  0.0000
 3102OM     OM1 3102   1.592   1.144   9.568  0.0000  0.0000  0.0000
 3103OM     OM1 3103   1.842   1.071   0.006  0.0000  0.0000  0.0000
 3104OM     OM1 3104   1.918   9.489   8.373  0.0000  0.0000  0.0000
 3105OM     OM1 3105   1.813   0.124   8.331  0.0000  0.0000  0.0000
 3106OM     OM1 3106   2.045   0.071   8.238  0.0000  0.0000  0.0000
 3107OM     OM1 3107   4.780   8.467   1.053  0.0000  0.0000  0.0000
 3108OM     OM1 3108   4.968   8.276   1.056  0.0000  0.0000  0.0000
 3109OM     OM1 3109   4.792   8.295   1.372  0.0000  0.0000  0.0000
 3110OM     OM1 3110   5.808   2.645   0.826  0.0000  0.0000  0.0000
 3111OM     OM1 3111   6.022   2.571   0.689  0.0000  0.0000  0.0000
 3112OM     OM1 3112   5.917   2.396   0.845  0.0000  0.0000  0.0000
 3113OM     OM1 3113   6.482   3.777   0.152  0.0000  0.0000  0.0000
 3114OM     OM1 3114   6.639   3.572   0.150  0.0000  0.0000  0.0000
 3115OM     OM1 3115   6.693   3.774   0.313  0.0000  0.0000  0.0000
 3116OM     OM1 3116   6.486   3.620   0.356  0.0000  0.0000  0.0000
 3117OM     OM1 3117   5.012   8.814   9.596  0.0000  0.0000  0.0000
 3118OM     OM1 3118   5.009   8.634   9.397  0.0000  0.0000  0.0000
 3119OM     OM1 3119   3.823   9.325   8.265  0.0000  0.0000  0.0000
 3120OM     OM1 3120   3.801   9.108   8.405  0.0000  0.0000  0.0000
 3121OM     OM1 3121   4.032   9.213   8.358  0.0000  0.0000  0.0000
 3122OM     OM1 3122   0.413   8.118   9.472  0.0000  0.0000  0.0000
 3123OM     OM1 3123   0.642   8.122   9.353  0.0000  0.0000  0.0000
 3124OM     OM1 3124   0.624   8.078   0.009  0.0000  0.0000  0.0000
 3125OM     OM1 3125   0.537   7.890   9.448  0.0000  0.0000  0.0000
 3126OM     OM1 3126   8.769   7.053   0.778  0.0000  0.0000  0.0000
 3127OM     OM1 3127   8.630   6.885   0.940  0.0000  0.0000  0.0000
 3128OM     OM1 3128   8.546   7.129   0.878  0.0000  0.0000  0.0000
 3129OM     OM1 3129   8.554   6.940   0.696  0.0000  0.0000  0.0000
 3130OM     OM1 3130   6.533   8.379   0.427  0.0000  0.0000  0.0000
 3131OM     OM1 3131   6.370   8.242   0.566  0.0000  0.0000  0.0000
 3132OM     OM1 3132   6.416   8.171   0.315  0.0000  0.0000  0.0000
 3133OM     OM1 3133   3.424   0.984   8.422  0.0000  0.0000  0.0000
 3134OM     OM1 3134   3.323   1.019   8.656  0.0000  0.0000  0.0000
 3135OM     OM1 3135   3.513   0.835   8.620  0.0000  0.0000  0.0000
 3136OM     OM1 3136   3.423   1.124   8.869  0.0000  0.0000  0.0000
 3137OM     OM1 3137   2.675   7.804   8.925  0.0000  0.0000  0.0000
 3138OM     OM1 3138   2.532   7.759   9.147  0.0000  0.0000  0.0000
 3139OM     OM1 3139   2.773   7.841   9.165  0.0000  0.0000  0.0000
 3140OM     OM1 3140   9.241   3.072   9.115  0.0000  0.0000  0.0000
 3141OM     OM1 3141   9.344   2.884   9.244  0.0000  0.0000  0.0000
 3142OM     OM1 3142   9.379   3.131   9.332  0.0000  0.0000  0.0000
 3143OM     OM1 3143   9.136   3.012   9.352  0.0000  0.0000  0.0000
 3144OM     OM1 3144   0.500   3.118   9.090  0.0000  0.0000  0.0000
 3145OM     OM1 3145   0.538   2.986   9.315  0.0000  0.0000  0.0000
 3146OM     OM1 3146   0.681   3.203   9.253  0.0000  0.0000  0.0000
 3147OM     OM1 3147   0.062   3.898   8.235  0.0000  0.0000  0.0000
 3148OM     OM1 3148   9.037   5.726   8.397  0.0000  0.0000  0.0000
 3149OM     OM1 3149   9.238   5.591   8.483  0.0000  0.0000  0.0000
 3150OM     OM1 3150   2.030   1.614   0.401  0.0000  0.0000  0.0000
 3151OM     OM1 3151   1.892   1.517   0.593  0.0000  0.0000  0.0000
 3152OM     OM1 3152   1.990   1.757   0.639  0.0000  0.0000  0.0000
 3153OM     OM1 3153   2.147   1.572   0.635  0.0000  0.0000  0.0000
 3154OM     OM1 3154   4.177   5.868   0.411  0.0000  0.0000  0.0000
 3155OM     OM1 3155   4.429   5.958   0.471  0.0000  0.0000  0.0000
 3156OM     OM1 3156   4.329   6.026   0.249  0.0000  0.0000  0.0000
 3157OM     OM1 3157   0.882   1.965   0.047  0.0000  0.0000  0.0000
 3158OM     OM1 3158   0.651   2.081   9.599  0.0000  0.0000  0.0000
 3159OM     OM1 3159   0.758   1.919   9.418  0.0000  0.0000  0.0000
 3160OM     OM1 3160   0.866   2.147   9.469  0.0000  0.0000  0.0000
 3161OM     OM1 3161   4.666   8.096   1.275  0.0000  0.0000  0.0000
 3162OM     OM1 3162   4.041   8.058   0.069  0.0000  0.0000  0.0000
 3163OM     OM1 3163   3.785   8.012   9.601  0.0000  0.0000  0.0000
 3164OM     OM1 3164   3.958   8.133   9.446  0.0000  0.0000  0.0000
 3165OM     OM1 3165   8.347   4.224   9.094  0.0000  0.0000  0.0000
 3166OM     OM1 3166   8.516   4.106   9.252  0.0000  0.0000  0.0000
 3167OM     OM1 3167   8.389   3.975   9.054  0.0000  0.0000  0.0000
 3168OM     OM1 3168   8.577   4.165   9.005  0.0000  0.0000  0.0000
 3169OM     OM1 3169   6.608   8.156   8.885  0.0000  0.0000  0.0000
 3170OM     OM1 3170   6.669   8.354   8.728  0.0000  0.0000  0.0000
 3171OM     OM1 3171   6.579   8.129   8.622  0.0000  0.0000  0.0000
 3172OM     OM1 3172   6.421   8.283   8.757  0.0000  0.0000  0.0000
 3173OM     OM1 3173   9.189   6.629   8.984  0.0000  0.0000  0.0000
 3174OM     OM1 3174   9.192   6.594   9.237  0.0000  0.0000  0.0000
 3175OM     OM1 3175   9.316   6.422   9.091  0.0000  0.0000  0.0000
 3176OM     OM1 3176   9.055   6.427   9.085  0.0000  0.0000  0.0000
 3177OM     OM1 3177   5.716   4.678   9.022  0.0000  0.0000  0.0000
 3178OM     OM1 3178   5.567   4.486   8.920  0.0000  0.0000  0.0000
 3179OM     OM1 3179   5.581   4.728   8.807  0.0000  0.0000  0.0000
 3180OM     OM1 3180   5.780   4.574   8.796  0.0000  0.0000  0.0000
 3181OM     OM1 3181   1.751   8.293   9.184  0.0000  0.0000  0.0000
 3182OM     OM1 3182   1.608   8.499   9.121  0.0000  0.0000  0.0000
 3183OM     OM1 3183   1.732   8.367   8.936  0.0000  0.0000  0.0000
 3184OM     OM1 3184   3.785   6.674   1.293  0.0000  0.0000  0.0000
 3185OM     OM1 3185   2.111   5.498   9.005  0.0000  0.0000  0.0000
 3186OM     OM1 3186   2.366   5.436   9.000  0.0000  0.0000  0.0000
 3187OM     OM1 3187   2.212   5.365   9.210  0.0000  0.0000  0.0000
 3188OM     OM1 3188   6.132   8.849   8.377  0.0000  0.0000  0.0000
 3189OM     OM1 3189   6.302   8.670   8.301  0.0000  0.0000  0.0000
 3190OM     OM1 3190   0.775   8.978   0.863  0.0000  0.0000  0.0000
 3191OM     OM1 3191   0.658   9.140   1.024  0.0000  0.0000  0.0000
 3192OM     OM1 3192   0.740   8.892   1.097  0.0000  0.0000  0.0000
 3193OM     OM1 3193   0.908   9.094   1.060  0.0000  0.0000  0.0000
 3194OM     OM1 3194   6.640   6.907   0.911  0.0000  0.0000  0.0000
 3195OM     OM1 3195   6.774   6.990   1.114  0.0000  0.0000  0.0000
 3196OM     OM1 3196   6.593   7.088   0.724  0.0000  0.0000  0.0000
 3197OM     OM1 3197   6.893   6.827   0.970  0.0000  0.0000  0.0000
 3198OM     OM1 3198   3.208   2.032   9.415  0.0000  0.0000  0.0000
 3199OM     OM1 3199   3.404   1.946   9.268  0.0000  0.0000  0.0000
 3200OM     OM1 3200   3.232   2.111   9.162  0.0000  0.0000  0.0000
 3201OM     OM1 3201   3.402   2.193   9.339  0.0000  0.0000  0.0000
 3202OM     OM1 3202   3.043   7.484   9.324  0.0000  0.0000  0.0000
 3203OM     OM1 3203   2.898   7.697   9.346  0.0000  0.0000  0.0000
 3204OM     OM1 3204   2.848   7.501   9.512  0.0000  0.0000  0.0000
 3205OM     OM1 3205   3.063   7.641   9.536  0.0000  0.0000  0.0000
 3206OM     OM1 3206   8.395   7.363   8.442  0.0000  0.0000  0.0000
 3207OM     OM1 3207   8.248   7.172   8.324  0.0000  0.0000  0.0000
 3208OM     OM1 3208   8.198   7.243   8.564  0.0000  0.0000  0.0000
 3209OM     OM1 3209   5.591   2.792   9.045  0.0000  0.0000  0.0000
 3210OM     OM1 3210   5.480   3.029   9.063  0.0000  0.0000  0.0000
 3211OM     OM1 3211   5.500   2.895   9.273  0.0000  0.0000  0.0000
 3212OM     OM1 3212   5.323   2.819   9.101  0.0000  0.0000  0.0000
 3213OM     OM1 3213   1.654   0.411   0.855  0.0000  0.0000  0.0000
 3214OM     OM1 3214   1.509   0.319   0.442  0.0000  0.0000  0.0000
 3215OM     OM1 3215   1.567   0.228   0.693  0.0000  0.0000  0.0000
 3216OM     OM1 3216   0.221   0.178   8.871  0.0000  0.0000  0.0000
 3217OM     OM1 3217   0.225   0.426   8.792  0.0000  0.0000  0.0000
 3218OM     OM1 3218   0.346   0.356   9.011  0.0000  0.0000  0.0000
 3219OM     OM1 3219   0.282   0.315   8.284  0.0000  0.0000  0.0000
 3220OM     OM1 3220   0.101   0.193   8.434  0.0000  0.0000  0.0000
 3221OM     OM1 3221   0.073   0.443   8.357  0.0000  0.0000  0.0000
 3222OM     OM1 3222   0.252   0.389   8.533  0.0000  0.0000  0.0000
 3223OM     OM1 3223   4.275   0.789   8.185  0.0000  0.0000  0.0000
 3224OM     OM1 3224   4.488   0.708   8.315  0.0000  0.0000  0.0000
 3225OM     OM1 3225   1.122   3.606   9.044  0.0000  0.0000  0.0000
 3226OM     OM1 3226   1.143   3.359   9.130  0.0000  0.0000  0.0000
 3227OM     OM1 3227   1.112   3.548   9.294  0.0000  0.0000  0.0000
 3228OM     OM1 3228   1.343   3.521   9.182  0.0000  0.0000  0.0000
 3229OM     OM1 3229   8.447   3.302   0.998  0.0000  0.0000  0.0000
 3230OM     OM1 3230   8.378   3.289   0.744  0.0000  0.0000  0.0000
 3231OM     OM1 3231   8.623   3.315   0.814  0.0000  0.0000  0.0000
 3232OM     OM1 3232   8.463   3.518   0.838  0.0000  0.0000  0.0000
 3233OM     OM1 3233   2.180   5.020   9.095  0.0000  0.0000  0.0000
 3234OM     OM1 3234   2.085   4.761   8.762  0.0000  0.0000  0.0000
 3235OM     OM1 3235   1.920   4.707   8.940  0.0000  0.0000  0.0000
 3236OM     OM1 3236   3.551   8.909   9.472  0.0000  0.0000  0.0000
 3237OM     OM1 3237   3.550   9.114   9.310  0.0000  0.0000  0.0000
 3238OM     OM1 3238   3.325   8.987   9.348  0.0000  0.0000  0.0000
 3239OM     OM1 3239   3.420   9.123   9.543  0.0000  0.0000  0.0000
 3240OM     OM1 3240   9.015   5.066   0.648  0.0000  0.0000  0.0000
 3241OM     OM1 3241   8.829   4.950   0.510  0.0000  0.0000  0.0000
 3242OM     OM1 3242   8.751   5.109   0.704  0.0000  0.0000  0.0000
 3243OM     OM1 3243   1.917   8.303   0.191  0.0000  0.0000  0.0000
 3244OM     OM1 3244   1.698   8.173   0.166  0.0000  0.0000  0.0000
 3245OM     OM1 3245   1.887   8.110   0.013  0.0000  0.0000  0.0000
 3246OM     OM1 3246   6.230   8.392   8.610  0.0000  0.0000  0.0000
 3247OM     OM1 3247   6.219   8.594   8.764  0.0000  0.0000  0.0000
 3248OM     OM1 3248   6.158   8.624   8.507  0.0000  0.0000  0.0000
 3249OM     OM1 3249   5.996   8.503   8.661  0.0000  0.0000  0.0000
 3250OM     OM1 3250   4.978   8.093   0.770  0.0000  0.0000  0.0000
 3251OM     OM1 3251   4.897   8.293   0.630  0.0000  0.0000  0.0000
 3252OM     OM1 3252   4.957   8.073   0.516  0.0000  0.0000  0.0000
 3253OM     OM1 3253   1.570   5.503   1.154  0.0000  0.0000  0.0000
 3254OM     OM1 3254   1.350   5.457   1.002  0.0000  0.0000  0.0000
 3255OM     OM1 3255   1.572   5.346   0.961  0.0000  0.0000  0.0000
 3256OM     OM1 3256   2.343   6.246   9.426  0.0000  0.0000  0.0000
 3257OM     OM1 3257   2.392   6.498   9.374  0.0000  0.0000  0.0000
 3258OM     OM1 3258   2.412   6.310   9.185  0.0000  0.0000  0.0000
 3259OM     OM1 3259   2.585   6.312   9.389  0.0000  0.0000  0.0000
 3260OM     OM1 3260   8.021   2.950   0.625  0.0000  0.0000  0.0000
 3261OM     OM1 3261   8.082   3.080   0.402  0.0000  0.0000  0.0000
 3262OM     OM1 3262   8.249   3.087   0.602  0.0000  0.0000  0.0000
 3263OM     OM1 3263   8.203   2.863   0.470  0.0000  0.0000  0.0000
 3264OM     OM1 3264   0.227   0.631   8.640  0.0000  0.0000  0.0000
 3265OM     OM1 3265   9.507   3.281   9.518  0.0000  0.0000  0.0000
 3266OM     OM1 3266   9.534   3.507   0.058  0.0000  0.0000  0.0000
 3267OM     OM1 3267   9.305   3.426   9.552  0.0000  0.0000  0.0000
 3268OM     OM1 3268   9.406   3.314   0.155  0.0000  0.0000  0.0000
 3269OM     OM1 3269   2.865   8.983   0.151  0.0000  0.0000  0.0000
 3270OM     OM1 3270   3.071   9.148   0.194  0.0000  0.0000  0.0000
 3271OM     OM1 3271   2.828   9.230   0.242  0.0000  0.0000  0.0000
 3272OM     OM1 3272   2.933   9.051   0.390  0.0000  0.0000  0.0000
 3273OM     OM1 3273   3.465   1.814   9.053  0.0000  0.0000  0.0000
 3274OM     OM1 3274   3.357   1.571   9.088  0.0000  0.0000  0.0000
 3275OM     OM1 3275   3.403   1.664   8.849  0.0000  0.0000  0.0000
 3276OM     OM1 3276   3.600   1.596   9.007  0.0000  0.0000  0.0000
 3277OM     OM1 3277   2.396   7.265   0.016  0.0000  0.0000  0.0000
 3278OM     OM1 3278   2.622   7.393   0.030  0.0000  0.0000  0.0000
 3279OM     OM1 3279   1.730   3.272   9.079  0.0000  0.0000  0.0000
 3280OM     OM1 3280   1.619   3.071   9.205  0.0000  0.0000  0.0000
 3281OM     OM1 3281   1.504   3.315   9.192  0.0000  0.0000  0.0000
 3282OM     OM1 3282   6.470   1.947   8.501  0.0000  0.0000  0.0000
 3283OM     OM1 3283   6.237   1.905   8.602  0.0000  0.0000  0.0000
 3284OM     OM1 3284   4.553   4.482   1.131  0.0000  0.0000  0.0000
 3285OM     OM1 3285   4.453   4.674   1.274  0.0000  0.0000  0.0000
 3286OM     OM1 3286   4.829   3.686   0.062  0.0000  0.0000  0.0000
 3287OM     OM1 3287   4.842   3.704   9.405  0.0000  0.0000  0.0000
 3288OM     OM1 3288   3.233   5.921   9.232  0.0000  0.0000  0.0000
 3289OM     OM1 3289   3.414   6.083   9.331  0.0000  0.0000  0.0000
 3290OM     OM1 3290   3.443   5.981   9.084  0.0000  0.0000  0.0000
 3291OM     OM1 3291   3.717   6.771   9.258  0.0000  0.0000  0.0000
 3292OM     OM1 3292   3.758   6.728   8.937  0.0000  0.0000  0.0000
 3293OM     OM1 3293   3.761   6.954   9.086  0.0000  0.0000  0.0000
 3294OM     OM1 3294   3.975   6.833   9.016  0.0000  0.0000  0.0000
 3295OM     OM1 3295   8.224   3.782   8.956  0.0000  0.0000  0.0000
 3296OM     OM1 3296   8.167   4.034   8.929  0.0000  0.0000  0.0000
 3297OM     OM1 3297   8.158   3.929   9.163  0.0000  0.0000  0.0000
 3298OM     OM1 3298   4.946   2.144   0.803  0.0000  0.0000  0.0000
 3299OM     OM1 3299   4.947   1.832   1.111  0.0000  0.0000  0.0000
 3300OM     OM1 3300   4.894   2.091   1.054  0.0000  0.0000  0.0000
 3301OM     OM1 3301   4.722   1.941   1.192  0.0000  0.0000  0.0000
 3302OM     OM1 3302   2.001   5.005   8.320  0.0000  0.0000  0.0000
 3303OM     OM1 3303   1.920   4.764   8.266  0.0000  0.0000  0.0000
 3304OM     OM1 3304   1.814   4.887   8.469  0.0000  0.0000  0.0000
 3305OM     OM1 3305   7.516   3.057   9.162  0.0000  0.0000  0.0000
 3306OM     OM1 3306   7.477   3.290   9.282  0.0000  0.0000  0.0000
 3307OM     OM1 3307   7.531   3.080   9.421  0.0000  0.0000  0.0000
 3308OM     OM1 3308   7.302   3.098   9.309  0.0000  0.0000  0.0000
 3309OM     OM1 3309   8.126   0.826   9.263  0.0000  0.0000  0.0000
 3310OM     OM1 3310   8.224   1.025   9.137  0.0000  0.0000  0.0000
 3311OM     OM1 3311   8.207   0.799   9.010  0.0000  0.0000  0.0000
 3312OM     OM1 3312   8.391   0.829   9.199  0.0000  0.0000  0.0000
 3313OM     OM1 3313   8.536   1.374   0.899  0.0000  0.0000  0.0000
 3314OM     OM1 3314   8.621   1.434   0.658  0.0000  0.0000  0.0000
 3315OM     OM1 3315   8.769   1.503   0.856  0.0000  0.0000  0.0000
 3316OM     OM1 3316   8.531   1.620   0.826  0.0000  0.0000  0.0000
 3317OM     OM1 3317   3.902   8.905   0.462  0.0000  0.0000  0.0000
 3318OM     OM1 3318   4.001   8.659   0.458  0.0000  0.0000  0.0000
 3319OM     OM1 3319   3.842   8.739   0.268  0.0000  0.0000  0.0000
 3320OM     OM1 3320   2.046   1.974   0.758  0.0000  0.0000  0.0000
 3321OM     OM1 3321   1.801   1.870   0.766  0.0000  0.0000  0.0000
 3322OM     OM1 3322   1.978   1.762   0.912  0.0000  0.0000  0.0000
 3323OM     OM1 3323   8.710   7.250   9.112  0.0000  0.0000  0.0000
 3324OM     OM1 3324   8.897   7.362   8.968  0.0000  0.0000  0.0000
 3325OM     OM1 3325   0.740   9.595   9.568  0.0000  0.0000  0.0000
 3326OM     OM1 3326   0.886   0.100   9.368  0.0000  0.0000  0.0000
 3327OM     OM1 3327   0.999   0.021   9.584  0.0000  0.0000  0.0000
 3328OM     OM1 3328   0.971   0.013   9.141  0.0000  0.0000  0.0000
 3329OM     OM1 3329   1.817   4.421   1.093  0.0000  0.0000  0.0000
 3330OM     OM1 3330   2.023   4.497   0.926  0.0000  0.0000  0.0000
 3331OM     OM1 3331   1.874   4.667   1.058  0.0000  0.0000  0.0000
 3332OM     OM1 3332   2.043   4.503   1.184  0.0000  0.0000  0.0000
 3333OM     OM1 3333   4.317   8.380   1.233  0.0000  0.0000  0.0000
 3334OM     OM1 3334   4.071   8.356   1.173  0.0000  0.0000  0.0000
 3335OM     OM1 3335   4.220   8.151   1.133  0.0000  0.0000  0.0000
 3336OM     OM1 3336   9.179   1.915   1.253  0.0000  0.0000  0.0000
 3337OM     OM1 3337   9.042   1.696   1.293  0.0000  0.0000  0.0000
 3338OM     OM1 3338   2.826   5.656   1.421  0.0000  0.0000  0.0000
 3339OM     OM1 3339   2.942   5.502   1.261  0.0000  0.0000  0.0000
 3340OM     OM1 3340   1.935   6.463   8.815  0.0000  0.0000  0.0000
 3341OM     OM1 3341   1.807   6.476   9.046  0.0000  0.0000  0.0000
 3342OM     OM1 3342   1.702   6.586   8.833  0.0000  0.0000  0.0000
 3343OM     OM1 3343   1.711   6.331   8.841  0.0000  0.0000  0.0000
 3344OM     OM1 3344   3.507   2.801   1.148  0.0000  0.0000  0.0000
 3345OM     OM1 3345   3.677   2.605   1.193  0.0000  0.0000  0.0000
 3346OM     OM1 3346   3.478   2.564   1.039  0.0000  0.0000  0.0000
 3347OM     OM1 3347   3.435   2.596   1.291  0.0000  0.0000  0.0000
 3348OM     OM1 3348   6.853   8.240   0.818  0.0000  0.0000  0.0000
 3349OM     OM1 3349   6.703   8.264   0.598  0.0000  0.0000  0.0000
 3350OM     OM1 3350   6.759   8.027   0.726  0.0000  0.0000  0.0000
 3351OM     OM1 3351   4.824   1.085   8.552  0.0000  0.0000  0.0000
 3352OM     OM1 3352   5.013   1.259   8.554  0.0000  0.0000  0.0000
 3353OM     OM1 3353   5.083   1.019   8.475  0.0000  0.0000  0.0000
 3354OM     OM1 3354   4.512   9.330   9.506  0.0000  0.0000  0.0000
 3355OM     OM1 3355   4.266   9.381   9.558  0.0000  0.0000  0.0000
 3356OM     OM1 3356   4.343   9.315   9.306  0.0000  0.0000  0.0000
 3357OM     OM1 3357   5.550   9.505   0.857  0.0000  0.0000  0.0000
 3358OM     OM1 3358   5.590   9.180   1.211  0.0000  0.0000  0.0000
 3359OM     OM1 3359   5.486   9.324   1.026  0.0000  0.0000  0.0000
 3360OM     OM1 3360   5.647   9.122   0.960  0.0000  0.0000  0.0000
 3361OM     OM1 3361   5.361   9.236   8.911  0.0000  0.0000  0.0000
 3362OM     OM1 3362   5.404   9.148   8.667  0.0000  0.0000  0.0000
 3363OM     OM1 3363   5.534   9.045   8.859  0.0000  0.0000  0.0000
 3364OM     OM1 3364   2.190   4.649   8.553  0.0000  0.0000  0.0000
 3365OM     OM1 3365   2.152   4.655   8.286  0.0000  0.0000  0.0000
 3366OM     OM1 3366   2.060   4.337   8.626  0.0000  0.0000  0.0000
 3367OM     OM1 3367   2.158   4.429   8.412  0.0000  0.0000  0.0000
 3368OM     OM1 3368   5.340   1.386   0.926  0.0000  0.0000  0.0000
 3369OM     OM1 3369   5.454   1.481   0.713  0.0000  0.0000  0.0000
 3370OM     OM1 3370   5.255   1.605   0.806  0.0000  0.0000  0.0000
 3371OM     OM1 3371   0.119   6.876   8.269  0.0000  0.0000  0.0000
 3372OM     OM1 3372   9.411   8.892   1.199  0.0000  0.0000  0.0000
 3373OM     OM1 3373   9.409   8.966   0.946  0.0000  0.0000  0.0000
 3374OM     OM1 3374   9.316   8.728   1.025  0.0000  0.0000  0.0000
 3375OM     OM1 3375   9.190   8.952   1.087  0.0000  0.0000  0.0000
 3376OM     OM1 3376   3.965   1.811   1.194  0.0000  0.0000  0.0000
 3377OM     OM1 3377   4.057   1.994   1.014  0.0000  0.0000  0.0000
 3378OM     OM1 3378   4.216   1.876   1.175  0.0000  0.0000  0.0000
 3379OM     OM1 3379   8.676   3.653   1.318  0.0000  0.0000  0.0000
 3380OM     OM1 3380   8.902   3.659   1.426  0.0000  0.0000  0.0000
 3381OM     OM1 3381   3.685   9.303   0.412  0.0000  0.0000  0.0000
 3382OM     OM1 3382   3.676   9.566   0.452  0.0000  0.0000  0.0000
 3383OM     OM1 3383   3.688   9.465   0.205  0.0000  0.0000  0.0000
 3384OM     OM1 3384   3.891   9.482   0.363  0.0000  0.0000  0.0000
 3385OM     OM1 3385   2.155   1.752   8.446  0.0000  0.0000  0.0000
 3386OM     OM1 3386   2.374   1.850   8.543  0.0000  0.0000  0.0000
 3387OM     OM1 3387   2.372   1.611   8.423  0.0000  0.0000  0.0000
 3388OM     OM1 3388   2.507   1.162   9.030  0.0000  0.0000  0.0000
 3389OM     OM1 3389   2.474   1.314   8.821  0.0000  0.0000  0.0000
 3390OM     OM1 3390   2.692   1.170   8.858  0.0000  0.0000  0.0000
 3391OM     OM1 3391   2.633   1.391   9.007  0.0000  0.0000  0.0000
 3392OM     OM1 3392   8.704   5.727   9.596  0.0000  0.0000  0.0000
 3393OM     OM1 3393   8.827   5.689   9.376  0.0000  0.0000  0.0000
 3394OM     OM1 3394   8.940   5.605   9.602  0.0000  0.0000  0.0000
 3395OM     OM1 3395   8.729   5.484   9.499  0.0000  0.0000  0.0000
 3396OM     OM1 3396   0.713   6.622   8.703  0.0000  0.0000  0.0000
 3397OM     OM1 3397   0.924   6.761   8.739  0.0000  0.0000  0.0000
 3398OM     OM1 3398   0.681   6.871   8.768  0.0000  0.0000  0.0000
 3399OM     OM1 3399   8.153   5.571   8.826  0.0000  0.0000  0.0000
 3400OM     OM1 3400   7.906   5.644   8.788  0.0000  0.0000  0.0000
 3401OM     OM1 3401   8.117   5.794   8.701  0.0000  0.0000  0.0000
 3402OM     OM1 3402   2.097   2.312   9.545  0.0000  0.0000  0.0000
 3403OM     OM1 3403   2.262   2.519   9.539  0.0000  0.0000  0.0000
 3404OM     OM1 3404   2.173   2.414   0.163  0.0000  0.0000  0.0000
 3405OM     OM1 3405   2.012   2.548   9.604  0.0000  0.0000  0.0000
 3406OM     OM1 3406   1.794   0.578   1.002  0.0000  0.0000  0.0000
 3407OM     OM1 3407   6.030   7.507   0.894  0.0000  0.0000  0.0000
 3408OM     OM1 3408   6.015   7.731   1.032  0.0000  0.0000  0.0000
 3409OM     OM1 3409   6.095   7.970   1.112  0.0000  0.0000  0.0000
 3410OM     OM1 3410   5.655   5.289   0.503  0.0000  0.0000  0.0000
 3411OM     OM1 3411   5.430   5.298   0.638  0.0000  0.0000  0.0000
 3412OM     OM1 3412   5.658   5.336   0.759  0.0000  0.0000  0.0000
 3413OM     OM1 3413   5.591   5.096   0.672  0.0000  0.0000  0.0000
 3414OM     OM1 3414   1.023   7.434   0.632  0.0000  0.0000  0.0000
 3415OM     OM1 3415   0.777   7.388   0.542  0.0000  0.0000  0.0000
 3416OM     OM1 3416   1.287   7.386   0.612  0.0000  0.0000  0.0000
 3417OM     OM1 3417   0.154   1.491   8.386  0.0000  0.0000  0.0000
 3418OM     OM1 3418   0.364   1.495   8.242  0.0000  0.0000  0.0000
 3419OM     OM1 3419   0.289   1.270   8.351  0.0000  0.0000  0.0000
 3420OM     OM1 3420   7.898   1.904   9.099  0.0000  0.0000  0.0000
 3421OM     OM1 3421   7.798   2.028   8.884  0.0000  0.0000  0.0000
 3422OM     OM1 3422   8.055   1.964   8.900  0.0000  0.0000  0.0000
 3423OM     OM1 3423   7.872   1.780   8.870  0.0000  0.0000  0.0000
 3424OM     OM1 3424   5.323   3.610   1.205  0.0000  0.0000  0.0000
 3425OM     OM1 3425   5.189   3.424   1.333  0.0000  0.0000  0.0000
 3426OM     OM1 3426   7.177   8.702   0.392  0.0000  0.0000  0.0000
 3427OM     OM1 3427   7.215   8.768   0.145  0.0000  0.0000  0.0000
 3428OM     OM1 3428   7.358   8.580   0.250  0.0000  0.0000  0.0000
 3429OM     OM1 3429   7.402   8.832   0.310  0.0000  0.0000  0.0000
 3430OM     OM1 3430   1.048   2.687   8.363  0.0000  0.0000  0.0000
 3431OM     OM1 3431   0.825   2.543   8.375  0.0000  0.0000  0.0000
 3432OM     OM1 3432   6.491   8.255   0.090  0.0000  0.0000  0.0000
 3433OM     OM1 3433   6.428   7.995   0.133  0.0000  0.0000  0.0000
 3434OM     OM1 3434   0.930   5.435   1.192  0.0000  0.0000  0.0000
 3435OM     OM1 3435   7.317   7.753   0.258  0.0000  0.0000  0.0000
 3436OM     OM1 3436   7.195   7.891   0.074  0.0000  0.0000  0.0000
 3437OM     OM1 3437   7.310   7.653   0.022  0.0000  0.0000  0.0000
 3438OM     OM1 3438   7.455   7.866   0.064  0.0000  0.0000  0.0000
 3439OM     OM1 3439   8.694   5.590   9.170  0.0000  0.0000  0.0000
 3440OM     OM1 3440   8.566   5.358   9.132  0.0000  0.0000  0.0000
 3441OM     OM1 3441   8.581   5.524   8.935  0.0000  0.0000  0.0000
 3442OM     OM1 3442   8.432   5.575   9.138  0.0000  0.0000  0.0000
 3443OM     OM1 3443   9.253   8.496   1.136  0.0000  0.0000  0.0000
 3444OM     OM1 3444   7.368   0.285   0.388  0.0000  0.0000  0.0000
 3445OM     OM1 3445   7.334   0.353   0.639  0.0000  0.0000  0.0000
 3446OM     OM1 3446   7.568   0.382   0.534  0.0000  0.0000  0.0000
 3447OM     OM1 3447   7.363   0.536   0.459  0.0000  0.0000  0.0000
 3448OM     OM1 3448   1.688   0.060   1.047  0.0000  0.0000  0.0000
 3449OM     OM1 3449   1.953   0.037   0.991  0.0000  0.0000  0.0000
 3450OM     OM1 3450   1.780   0.182   0.849  0.0000  0.0000  0.0000
 3451OM     OM1 3451   1.775   9.526   0.842  0.0000  0.0000  0.0000
 3452OM     OM1 3452   6.764   6.894   8.794  0.0000  0.0000  0.0000
 3453OM     OM1 3453   6.691   6.736   8.600  0.0000  0.0000  0.0000
 3454OM     OM1 3454   4.742   1.319   0.508  0.0000  0.0000  0.0000
 3455OM     OM1 3455   4.930   1.153   0.412  0.0000  0.0000  0.0000
 3456OM     OM1 3456   4.786   1.099   0.639  0.0000  0.0000  0.0000
 3457OM     OM1 3457   9.175   8.823   0.323  0.0000  0.0000  0.0000
 3458OM     OM1 3458   9.546   8.573   0.158  0.0000  0.0000  0.0000
 3459OM     OM1 3459   9.300   8.734   0.528  0.0000  0.0000  0.0000
 3460OM     OM1 3460   3.045   8.973   8.553  0.0000  0.0000  0.0000
 3461OM     OM1 3461   2.927   9.190   8.568  0.0000  0.0000  0.0000
 3462OM     OM1 3462   3.164   9.183   8.669  0.0000  0.0000  0.0000
 3463OM     OM1 3463   3.155   9.173   8.418  0.0000  0.0000  0.0000
 3464OM     OM1 3464   3.692   0.630   0.828  0.0000  0.0000  0.0000
 3465OM     OM1 3465   3.659   0.427   0.660  0.0000  0.0000  0.0000
 3466OM     OM1 3466   3.853   0.616   0.626  0.0000  0.0000  0.0000
 3467OM     OM1 3467   3.609   0.661   0.574  0.0000  0.0000  0.0000
 3468OM     OM1 3468   4.320   4.451   8.581  0.0000  0.0000  0.0000
 3469OM     OM1 3469   4.483   4.622   8.688  0.0000  0.0000  0.0000
 3470OM     OM1 3470   4.283   4.711   8.549  0.0000  0.0000  0.0000
 3471OM     OM1 3471   5.439   0.647   0.224  0.0000  0.0000  0.0000
 3472OM     OM1 3472   5.487   0.898   0.171  0.0000  0.0000  0.0000
 3473OM     OM1 3473   5.556   0.731   9.605  0.0000  0.0000  0.0000
 3474OM     OM1 3474   5.295   0.759   0.037  0.0000  0.0000  0.0000
 3475OM     OM1 3475   0.992   5.637   1.033  0.0000  0.0000  0.0000
 3476OM     OM1 3476   0.789   5.670   1.189  0.0000  0.0000  0.0000
 3477OM     OM1 3477   4.621   2.904   8.502  0.0000  0.0000  0.0000
 3478OM     OM1 3478   4.824   2.831   8.351  0.0000  0.0000  0.0000
 3479OM     OM1 3479   4.718   3.059   8.307  0.0000  0.0000  0.0000
 3480OM     OM1 3480   4.520   6.988   8.983  0.0000  0.0000  0.0000
 3481OM     OM1 3481   4.426   6.861   9.193  0.0000  0.0000  0.0000
 3482OM     OM1 3482   4.589   7.057   9.224  0.0000  0.0000  0.0000
 3483OM     OM1 3483   4.681   6.832   9.117  0.0000  0.0000  0.0000
 3484OM     OM1 3484   3.507   9.505   8.725  0.0000  0.0000  0.0000
 3485OM     OM1 3485   3.471   0.164   8.684  0.0000  0.0000  0.0000
 3486OM     OM1 3486   2.650   4.884   8.480  0.0000  0.0000  0.0000
 3487OM     OM1 3487   2.449   5.035   8.525  0.0000  0.0000  0.0000
 3488OM     OM1 3488   2.672   5.156   8.475  0.0000  0.0000  0.0000
 3489OM     OM1 3489   2.782   3.833   8.552  0.0000  0.0000  0.0000
 3490OM     OM1 3490   2.689   3.655   8.378  0.0000  0.0000  0.0000
 3491OM     OM1 3491   2.531   3.799   8.514  0.0000  0.0000  0.0000
 3492OM     OM1 3492   0.433   3.240   1.361  0.0000  0.0000  0.0000
 3493OM     OM1 3493   0.535   3.479   1.280  0.0000  0.0000  0.0000
 3494OM     OM1 3494   2.929   4.274   1.205  0.0000  0.0000  0.0000
 3495OM     OM1 3495   3.672   6.381   0.660  0.0000  0.0000  0.0000
 3496OM     OM1 3496   3.663   6.132   0.670  0.0000  0.0000  0.0000
 3497OM     OM1 3497   3.493   6.258   0.823  0.0000  0.0000  0.0000
 3498OM     OM1 3498   3.466   6.255   0.561  0.0000  0.0000  0.0000
 3499OM     OM1 3499   7.591   1.873   1.079  0.0000  0.0000  0.0000
 3500OM     OM1 3500   7.578   1.620   1.158  0.0000  0.0000  0.0000
 3501OM     OM1 3501   7.506   1.677   0.927  0.0000  0.0000  0.0000
 3502OM     OM1 3502   7.767   1.708   0.998  0.0000  0.0000  0.0000
 3503OM     OM1 3503   8.274   7.996   1.028  0.0000  0.0000  0.0000
 3504OM     OM1 3504   8.155   7.789   1.145  0.0000  0.0000  0.0000
 3505OM     OM1 3505   8.257   7.773   0.906  0.0000  0.0000  0.0000
 3506OM     OM1 3506   5.438   2.234   9.591  0.0000  0.0000  0.0000
 3507OM     OM1 3507   5.263   2.052   0.044  0.0000  0.0000  0.0000
 3508OM     OM1 3508   5.196   2.277   9.525  0.0000  0.0000  0.0000
 3509OM     OM1 3509   5.262   2.261   0.186  0.0000  0.0000  0.0000
 3510OM     OM1 3510   7.796   2.884   0.508  0.0000  0.0000  0.0000
 3511OM     OM1 3511   7.568   2.768   0.551  0.0000  0.0000  0.0000
 3512OM     OM1 3512   7.623   2.851   0.305  0.0000  0.0000  0.0000
 3513OM     OM1 3513   7.574   3.021   0.490  0.0000  0.0000  0.0000
 3514OM     OM1 3514   1.372   0.391   0.646  0.0000  0.0000  0.0000
 3515OM     OM1 3515   1.365   0.142   0.555  0.0000  0.0000  0.0000
 3516OM     OM1 3516   7.641   2.825   9.169  0.0000  0.0000  0.0000
 3517OM     OM1 3517   7.744   2.855   9.412  0.0000  0.0000  0.0000
 3518OM     OM1 3518   0.182   8.615   8.400  0.0000  0.0000  0.0000
 3519OM     OM1 3519   0.108   8.864   8.382  0.0000  0.0000  0.0000
 3520OM     OM1 3520   9.553   8.692   8.495  0.0000  0.0000  0.0000
 3521OM     OM1 3521   2.453   7.978   8.552  0.0000  0.0000  0.0000
 3522OM     OM1 3522   2.303   7.782   8.616  0.0000  0.0000  0.0000
 3523OM     OM1 3523   2.558   7.781   8.692  0.0000  0.0000  0.0000
 3524OM     OM1 3524   2.499   7.737   8.446  0.0000  0.0000  0.0000
 3525OM     OM1 3525   4.580   2.679   1.244  0.0000  0.0000  0.0000
 3526OM     OM1 3526   4.741   2.522   1.104  0.0000  0.0000  0.0000
 3527OM     OM1 3527   4.565   2.420   1.260  0.0000  0.0000  0.0000
 3528OM     OM1 3528   8.112   1.336   8.957  0.0000  0.0000  0.0000
 3529OM     OM1 3529   8.344   1.290   8.872  0.0000  0.0000  0.0000
 3530OM     OM1 3530   8.141   1.141   8.784  0.0000  0.0000  0.0000
 3531OM     OM1 3531   7.891   0.536   8.704  0.0000  0.0000  0.0000
 3532OM     OM1 3532   8.076   0.406   8.819  0.0000  0.0000  0.0000
 3533OM     OM1 3533   8.114   0.655   8.804  0.0000  0.0000  0.0000
 3534OM     OM1 3534   7.927   0.591   8.957  0.0000  0.0000  0.0000
 3535OM     OM1 3535   3.237   0.546   8.507  0.0000  0.0000  0.0000
 3536OM     OM1 3536   3.419   0.352   8.519  0.0000  0.0000  0.0000
 3537OM     OM1 3537   3.262   0.378   8.309  0.0000  0.0000  0.0000
 3538OM     OM1 3538   2.252   0.993   0.905  0.0000  0.0000  0.0000
 3539OM     OM1 3539   2.355   0.824   1.082  0.0000  0.0000  0.0000
 3540OM     OM1 3540   2.195   1.016   1.162  0.0000  0.0000  0.0000
 3541OM     OM1 3541   2.426   1.081   1.078  0.0000  0.0000  0.0000
 3542OM     OM1 3542   7.970   0.131   1.115  0.0000  0.0000  0.0000
 3543OM     OM1 3543   7.719   0.113   1.173  0.0000  0.0000  0.0000
 3544OM     OM1 3544   7.814   0.335   1.058  0.0000  0.0000  0.0000
 3545OM     OM1 3545   7.774   0.118   0.925  0.0000  0.0000  0.0000
 3546OM     OM1 3546   6.874   3.780   9.535  0.0000  0.0000  0.0000
 3547OM     OM1 3547   6.692   3.967   9.555  0.0000  0.0000  0.0000
 3548OM     OM1 3548   6.925   3.995   0.079  0.0000  0.0000  0.0000
 3549OM     OM1 3549   8.583   9.127   1.267  0.0000  0.0000  0.0000
 3550OM     OM1 3550   8.475   9.154   1.048  0.0000  0.0000  0.0000
 3551OM     OM1 3551   8.615   9.350   1.112  0.0000  0.0000  0.0000
 3552OM     OM1 3552   8.755   9.150   1.058  0.0000  0.0000  0.0000
 3553OM     OM1 3553   2.010   4.147   9.596  0.0000  0.0000  0.0000
 3554OM     OM1 3554   1.998   4.016   9.376  0.0000  0.0000  0.0000
 3555OM     OM1 3555   0.770   5.998   0.284  0.0000  0.0000  0.0000
 3556OM     OM1 3556   0.961   5.807   0.308  0.0000  0.0000  0.0000
 3557OM     OM1 3557   0.964   5.988   0.117  0.0000  0.0000  0.0000
 3558OM     OM1 3558   0.787   5.795   0.121  0.0000  0.0000  0.0000
 3559OM     OM1 3559   3.914   2.765   1.333  0.0000  0.0000  0.0000
 3560OM     OM1 3560   3.929   3.021   1.318  0.0000  0.0000  0.0000
 3561OM     OM1 3561   3.697   2.917   1.282  0.0000  0.0000  0.0000
 3562OM     OM1 3562   4.230   4.324   9.506  0.0000  0.0000  0.0000
 3563OM     OM1 3563   4.184   3.976   0.014  0.0000  0.0000  0.0000
 3564OM     OM1 3564   4.207   4.196   0.130  0.0000  0.0000  0.0000
 3565OM     OM1 3565   4.440   4.303   0.068  0.0000  0.0000  0.0000
 3566OM     OM1 3566   6.175   7.541   8.459  0.0000  0.0000  0.0000
 3567OM     OM1 3567   6.042   7.743   8.352  0.0000  0.0000  0.0000
 3568OM     OM1 3568   6.048   7.507   8.237  0.0000  0.0000  0.0000
 3569OM     OM1 3569   7.528   6.498   8.259  0.0000  0.0000  0.0000
 3570OM     OM1 3570   7.634   6.747   8.258  0.0000  0.0000  0.0000
 3571OM     OM1 3571   6.176   9.498   8.781  0.0000  0.0000  0.0000
 3572OM     OM1 3572   5.951   9.413   8.659  0.0000  0.0000  0.0000
 3573OM     OM1 3573   5.950   9.524   8.901  0.0000  0.0000  0.0000
 3574OM     OM1 3574   6.041   9.293   8.873  0.0000  0.0000  0.0000
 3575OM     OM1 3575   4.983   0.938   0.290  0.0000  0.0000  0.0000
 3576OM     OM1 3576   5.127   1.145   0.231  0.0000  0.0000  0.0000
 3577OM     OM1 3577   4.434   7.156   8.796  0.0000  0.0000  0.0000
 3578OM     OM1 3578   4.771   7.403   9.003  0.0000  0.0000  0.0000
 3579OM     OM1 3579   4.563   7.289   9.120  0.0000  0.0000  0.0000
 3580OM     OM1 3580   9.191   8.805   9.007  0.0000  0.0000  0.0000
 3581OM     OM1 3581   9.222   8.587   8.866  0.0000  0.0000  0.0000
 3582OM     OM1 3582   9.309   8.583   9.109  0.0000  0.0000  0.0000
 3583OM     OM1 3583   7.144   8.099   0.228  0.0000  0.0000  0.0000
 3584OM     OM1 3584   6.710   5.769   0.412  0.0000  0.0000  0.0000
 3585OM     OM1 3585   6.786   5.753   0.659  0.0000  0.0000  0.0000
 3586OM     OM1 3586   6.961   5.745   0.464  0.0000  0.0000  0.0000
 3587OM     OM1 3587   5.683   1.072   1.029  0.0000  0.0000  0.0000
 3588OM     OM1 3588   5.920   1.063   1.111  0.0000  0.0000  0.0000
 3589OM     OM1 3589   5.946   0.821   1.001  0.0000  0.0000  0.0000
 3590OM     OM1 3590   6.096   1.011   0.913  0.0000  0.0000  0.0000
 3591OM     OM1 3591   4.277   4.356   0.746  0.0000  0.0000  0.0000
 3592OM     OM1 3592   4.091   4.518   0.815  0.0000  0.0000  0.0000
 3593OM     OM1 3593   4.024   4.299   0.690  0.0000  0.0000  0.0000
 3594OM     OM1 3594   4.140   4.496   0.560  0.0000  0.0000  0.0000
 3595OM     OM1 3595   2.484   5.449   1.124  0.0000  0.0000  0.0000
 3596OM     OM1 3596   2.742   5.424   1.093  0.0000  0.0000  0.0000
 3597OM     OM1 3597   2.577   5.227   1.028  0.0000  0.0000  0.0000
 3598OM     OM1 3598   8.707   2.280   9.419  0.0000  0.0000  0.0000
 3599OM     OM1 3599   8.952   2.282   9.550  0.0000  0.0000  0.0000
 3600OM     OM1 3600   8.743   2.163   0.042  0.0000  0.0000  0.0000
 3601OM     OM1 3601   8.743   9.577   8.277  0.0000  0.0000  0.0000
 3602OM     OM1 3602   6.061   3.420   1.207  0.0000  0.0000  0.0000
 3603OM     OM1 3603   5.935   3.186   1.253  0.0000  0.0000  0.0000
 3604OM     OM1 3604   6.182   3.197   1.235  0.0000  0.0000  0.0000
 3605OM     OM1 3605   8.800   8.594   0.088  0.0000  0.0000  0.0000
 3606OM     OM1 3606   8.562   8.556   0.197  0.0000  0.0000  0.0000
 3607OM     OM1 3607   8.659   8.362   0.067  0.0000  0.0000  0.0000
 3608OM     OM1 3608   8.596   8.571   9.544  0.0000  0.0000  0.0000
 3609OM     OM1 3609   7.204   6.775   9.244  0.0000  0.0000  0.0000
 3610OM     OM1 3610   7.034   6.684   9.421  0.0000  0.0000  0.0000
 3611OM     OM1 3611   7.155   6.922   9.454  0.0000  0.0000  0.0000
 3612OM     OM1 3612   7.289   6.701   9.479  0.0000  0.0000  0.0000
 3613OM     OM1 3613   3.795   7.345   0.056  0.0000  0.0000  0.0000
 3614OM     OM1 3614   3.649   7.545   9.592  0.0000  0.0000  0.0000
 3615OM     OM1 3615   3.633   7.448   0.234  0.0000  0.0000  0.0000
 3616OM     OM1 3616   3.538   7.317   0.030  0.0000  0.0000  0.0000
 3617OM     OM1 3617   8.641   3.241   0.316  0.0000  0.0000  0.0000
 3618OM     OM1 3618   8.164   3.225   0.198  0.0000  0.0000  0.0000
 3619OM     OM1 3619   8.373   3.237   0.023  0.0000  0.0000  0.0000
 3620OM     OM1 3620   7.672   4.451   8.657  0.0000  0.0000  0.0000
 3621OM     OM1 3621   7.546   4.525   8.884  0.0000  0.0000  0.0000
 3622OM     OM1 3622   7.576   4.277   8.818  0.0000  0.0000  0.0000
 3623OM     OM1 3623   3.726   4.475   1.076  0.0000  0.0000  0.0000
 3624OM     OM1 3624   3.468   4.525   1.030  0.0000  0.0000  0.0000
 3625OM     OM1 3625   3.228   4.492   1.135  0.0000  0.0000  0.0000
 3626OM     OM1 3626   3.654   4.714   1.045  0.0000  0.0000  0.0000
 3627OM     OM1 3627   2.893   8.233   8.319  0.0000  0.0000  0.0000
 3628OM     OM1 3628   2.690   8.597   8.411  0.0000  0.0000  0.0000
 3629OM     OM1 3629   5.328   3.403   0.077  0.0000  0.0000  0.0000
 3630OM     OM1 3630   5.337   3.150   0.107  0.0000  0.0000  0.0000
 3631OM     OM1 3631   5.463   3.597   9.583  0.0000  0.0000  0.0000
 3632OM     OM1 3632   0.230   5.480   8.525  0.0000  0.0000  0.0000
 3633OM     OM1 3633   0.189   5.259   8.412  0.0000  0.0000  0.0000
 3634OM     OM1 3634   0.249   5.260   8.676  0.0000  0.0000  0.0000
 3635OM     OM1 3635   0.024   5.398   8.276  0.0000  0.0000  0.0000
 3636OM     OM1 3636   0.315   0.356   0.301  0.0000  0.0000  0.0000
 3637OM     OM1 3637   0.461   0.534   0.432  0.0000  0.0000  0.0000
 3638OM     OM1 3638   9.325   4.412   0.741  0.0000  0.0000  0.0000
 3639OM     OM1 3639   9.580   4.408   0.796  0.0000  0.0000  0.0000
 3640OM     OM1 3640   9.437   4.206   0.856  0.0000  0.0000  0.0000
 3641OM     OM1 3641   9.481   4.251   0.604  0.0000  0.0000  0.0000
 3642OM     OM1 3642   0.367   1.396   1.195  0.0000  0.0000  0.0000
 3643OM     OM1 3643   0.576   1.232   1.191  0.0000  0.0000  0.0000
 3644OM     OM1 3644   7.654   3.360   1.305  0.0000  0.0000  0.0000
 3645OM     OM1 3645   7.636   3.604   1.422  0.0000  0.0000  0.0000
 3646OM     OM1 3646   4.928   4.236   0.012  0.0000  0.0000  0.0000
 3647OM     OM1 3647   4.842   4.158   0.240  0.0000  0.0000  0.0000
 3648OM     OM1 3648   4.703   4.339   0.103  0.0000  0.0000  0.0000
 3649OM     OM1 3649   2.746   6.360   9.582  0.0000  0.0000  0.0000
 3650OM     OM1 3650   2.794   6.148   9.421  0.0000  0.0000  0.0000
 3651OM     OM1 3651   4.651   7.011   0.222  0.0000  0.0000  0.0000
 3652OM     OM1 3652   4.607   7.007   0.475  0.0000  0.0000  0.0000
 3653OM     OM1 3653   4.415   6.933   0.322  0.0000  0.0000  0.0000
 3654OM     OM1 3654   6.001   7.365   9.108  0.0000  0.0000  0.0000
 3655OM     OM1 3655   5.828   7.693   9.453  0.0000  0.0000  0.0000
 3656OM     OM1 3656   5.935   7.592   9.004  0.0000  0.0000  0.0000
 3657OM     OM1 3657   5.869   7.538   9.244  0.0000  0.0000  0.0000
 3658OM     OM1 3658   7.127   4.451   9.420  0.0000  0.0000  0.0000
 3659OM     OM1 3659   7.165   4.373   9.172  0.0000  0.0000  0.0000
 3660OM     OM1 3660   7.309   4.273   9.352  0.0000  0.0000  0.0000
 3661OM     OM1 3661   7.324   3.971   9.058  0.0000  0.0000  0.0000
 3662OM     OM1 3662   7.426   4.071   8.835  0.0000  0.0000  0.0000
 3663OM     OM1 3663   7.286   4.223   8.996  0.0000  0.0000  0.0000
 3664OM     OM1 3664   3.515   7.306   9.220  0.0000  0.0000  0.0000
 3665OM     OM1 3665   3.376   7.267   9.434  0.0000  0.0000  0.0000
 3666OM     OM1 3666   3.253   7.358   9.222  0.0000  0.0000  0.0000
 3667OM     OM1 3667   3.350   7.106   9.231  0.0000  0.0000  0.0000
 3668OM     OM1 3668   9.306   1.015   1.020  0.0000  0.0000  0.0000
 3669OM     OM1 3669   9.346   1.235   0.896  0.0000  0.0000  0.0000
 3670OM     OM1 3670   9.132   1.107   0.838  0.0000  0.0000  0.0000
 3671OM     OM1 3671   9.152   1.233   1.063  0.0000  0.0000  0.0000
 3672OM     OM1 3672   2.693   4.324   0.482  0.0000  0.0000  0.0000
 3673OM     OM1 3673   2.596   4.128   0.337  0.0000  0.0000  0.0000
 3674OM     OM1 3674   2.694   4.078   0.575  0.0000  0.0000  0.0000
 3675OM     OM1 3675   2.845   4.155   0.363  0.0000  0.0000  0.0000
 3676OM     OM1 3676   7.559   9.266   1.342  0.0000  0.0000  0.0000
 3677OM     OM1 3677   7.583   9.003   1.304  0.0000  0.0000  0.0000
 3678OM     OM1 3678   8.179   1.808   8.569  0.0000  0.0000  0.0000
 3679OM     OM1 3679   8.347   1.983   8.493  0.0000  0.0000  0.0000
 3680OM     OM1 3680   8.171   2.044   8.678  0.0000  0.0000  0.0000
 3681OM     OM1 3681   3.411   1.369   8.940  0.0000  0.0000  0.0000
 3682OM     OM1 3682   3.368   1.325   9.194  0.0000  0.0000  0.0000
 3683OM     OM1 3683   8.911   0.934   9.127  0.0000  0.0000  0.0000
 3684OM     OM1 3684   8.666   0.864   9.236  0.0000  0.0000  0.0000
 3685OM     OM1 3685   8.720   1.101   9.156  0.0000  0.0000  0.0000
 3686OM     OM1 3686   8.434   2.318   1.159  0.0000  0.0000  0.0000
 3687OM     OM1 3687   8.417   2.285   0.896  0.0000  0.0000  0.0000
 3688OM     OM1 3688   2.577   1.909   8.687  0.0000  0.0000  0.0000
 3689OM     OM1 3689   2.728   1.803   8.870  0.0000  0.0000  0.0000
 3690OM     OM1 3690   2.744   1.706   8.630  0.0000  0.0000  0.0000
 3691OM     OM1 3691   6.406   4.490   0.347  0.0000  0.0000  0.0000
 3692OM     OM1 3692   6.625   4.633   0.389  0.0000  0.0000  0.0000
 3693OM     OM1 3693   6.635   4.419   0.236  0.0000  0.0000  0.0000
 3694OM     OM1 3694   9.546   1.582   0.006  0.0000  0.0000  0.0000
 3695OM     OM1 3695   0.003   1.492   0.248  0.0000  0.0000  0.0000
 3696OM     OM1 3696   0.070   1.728   0.164  0.0000  0.0000  0.0000
 3697OM     OM1 3697   9.423   1.687   0.216  0.0000  0.0000  0.0000
 3698OM     OM1 3698   9.386   5.642   0.686  0.0000  0.0000  0.0000
 3699OM     OM1 3699   9.451   5.543   0.449  0.0000  0.0000  0.0000
 3700OM     OM1 3700   9.582   5.743   0.538  0.0000  0.0000  0.0000
 3701OM     OM1 3701   9.321   5.766   0.479  0.0000  0.0000  0.0000
 3702OM     OM1 3702   4.958   6.414   8.971  0.0000  0.0000  0.0000
 3703OM     OM1 3703   4.843   6.620   9.116  0.0000  0.0000  0.0000
 3704OM     OM1 3704   0.242   4.217   9.370  0.0000  0.0000  0.0000
 3705OM     OM1 3705   0.480   4.102   9.310  0.0000  0.0000  0.0000
 3706OM     OM1 3706   0.275   3.955   9.386  0.0000  0.0000  0.0000
 3707OM     OM1 3707   0.405   4.122   9.548  0.0000  0.0000  0.0000
 3708OM     OM1 3708   8.748   5.770   0.711  0.0000  0.0000  0.0000
 3709OM     OM1 3709   8.671   5.551   0.804  0.0000  0.0000  0.0000
 3710OM     OM1 3710   8.642   5.626   1.049  0.0000  0.0000  0.0000
 3711OM     OM1 3711   8.482   5.434   0.929  0.0000  0.0000  0.0000
 3712OM     OM1 3712   2.482   0.247   0.768  0.0000  0.0000  0.0000
 3713OM     OM1 3713   2.248   0.298   0.674  0.0000  0.0000  0.0000
 3714OM     OM1 3714   2.553   0.105   0.975  0.0000  0.0000  0.0000
 3715OM     OM1 3715   2.405   0.163   0.526  0.0000  0.0000  0.0000
 3716OM     OM1 3716   1.717   2.208   0.810  0.0000  0.0000  0.0000
 3717OM     OM1 3717   1.616   1.997   0.933  0.0000  0.0000  0.0000
 3718OM     OM1 3718   1.612   2.007   0.680  0.0000  0.0000  0.0000
 3719OM     OM1 3719   1.459   2.176   0.824  0.0000  0.0000  0.0000
 3720OM     OM1 3720   5.381   8.268   9.602  0.0000  0.0000  0.0000
 3721OM     OM1 3721   5.596   8.380   0.092  0.0000  0.0000  0.0000
 3722OM     OM1 3722   5.497   8.185   0.226  0.0000  0.0000  0.0000
 3723OM     OM1 3723   5.850   4.032   9.488  0.0000  0.0000  0.0000
 3724OM     OM1 3724   5.712   4.256   9.544  0.0000  0.0000  0.0000
 3725OM     OM1 3725   5.971   4.241   9.560  0.0000  0.0000  0.0000
 3726OM     OM1 3726   0.403   2.787   0.951  0.0000  0.0000  0.0000
 3727OM     OM1 3727   0.312   2.699   1.174  0.0000  0.0000  0.0000
 3728OM     OM1 3728   6.478   6.311   9.586  0.0000  0.0000  0.0000
 3729OM     OM1 3729   6.544   6.566   9.519  0.0000  0.0000  0.0000
 3730OM     OM1 3730   6.497   6.125   0.158  0.0000  0.0000  0.0000
 3731OM     OM1 3731   6.561   6.080   9.519  0.0000  0.0000  0.0000
 3732OM     OM1 3732   6.484   1.483   0.948  0.0000  0.0000  0.0000
 3733OM     OM1 3733   6.547   1.737   0.984  0.0000  0.0000  0.0000
 3734OM     OM1 3734   6.323   1.669   0.875  0.0000  0.0000  0.0000
 3735OM     OM1 3735   6.371   1.639   1.138  0.0000  0.0000  0.0000
 3736OM     OM1 3736   3.186   6.964   8.255  0.0000  0.0000  0.0000
 3737OM     OM1 3737   3.280   6.827   8.442  0.0000  0.0000  0.0000
 3738OM     OM1 3738   5.378   8.966   1.274  0.0000  0.0000  0.0000
 3739OM     OM1 3739   5.403   9.078   1.055  0.0000  0.0000  0.0000
 3740OM     OM1 3740   5.146   8.966   1.170  0.0000  0.0000  0.0000
 3741OM     OM1 3741   8.070   4.402   0.622  0.0000  0.0000  0.0000
 3742OM     OM1 3742   8.218   4.213   0.524  0.0000  0.0000  0.0000
 3743OM     OM1 3743   8.228   4.453   0.427  0.0000  0.0000  0.0000
 3744OM     OM1 3744   8.020   4.306   0.380  0.0000  0.0000  0.0000
 3745OM     OM1 3745   6.441   4.054   8.954  0.0000  0.0000  0.0000
 3746OM     OM1 3746   6.505   4.032   8.702  0.0000  0.0000  0.0000
 3747OM     OM1 3747   6.562   3.846   8.882  0.0000  0.0000  0.0000
 3748OM     OM1 3748   6.315   3.875   8.807  0.0000  0.0000  0.0000
 3749OM     OM1 3749   4.666   2.688   8.625  0.0000  0.0000  0.0000
 3750OM     OM1 3750   4.520   2.888   8.753  0.0000  0.0000  0.0000
 3751OM     OM1 3751   5.180   4.093   8.457  0.0000  0.0000  0.0000
 3752OM     OM1 3752   4.923   4.126   8.451  0.0000  0.0000  0.0000
 3753OM     OM1 3753   5.042   4.124   8.677  0.0000  0.0000  0.0000
 3754OM     OM1 3754   5.085   4.330   8.516  0.0000  0.0000  0.0000
 3755OM     OM1 3755   9.381   2.641   0.435  0.0000  0.0000  0.0000
 3756OM     OM1 3756   9.247   2.418   0.363  0.0000  0.0000  0.0000
 3757OM     OM1 3757   9.211   2.521   0.599  0.0000  0.0000  0.0000
 3758OM     OM1 3758   9.438   2.419   0.551  0.0000  0.0000  0.0000
 3759OM     OM1 3759   1.359   9.198   0.372  0.0000  0.0000  0.0000
 3760OM     OM1 3760   1.350   8.864   0.211  0.0000  0.0000  0.0000
 3761OM     OM1 3761   1.403   8.996   9.604  0.0000  0.0000  0.0000
 3762OM     OM1 3762   8.998   1.642   0.831  0.0000  0.0000  0.0000
 3763OM     OM1 3763   8.998   1.401   0.932  0.0000  0.0000  0.0000
 3764OM     OM1 3764   2.654   3.690   9.547  0.0000  0.0000  0.0000
 3765OM     OM1 3765   2.732   3.617   0.180  0.0000  0.0000  0.0000
 3766OM     OM1 3766   4.017   3.842   8.806  0.0000  0.0000  0.0000
 3767OM     OM1 3767   4.203   4.017   8.876  0.0000  0.0000  0.0000
 3768OM     OM1 3768   4.263   3.764   8.813  0.0000  0.0000  0.0000
 3769OM     OM1 3769   4.184   3.942   8.634  0.0000  0.0000  0.0000
 3770OM     OM1 3770   7.345   5.705   9.154  0.0000  0.0000  0.0000
 3771OM     OM1 3771   2.109   8.040   1.297  0.0000  0.0000  0.0000
 3772OM     OM1 3772   1.865   8.104   1.232  0.0000  0.0000  0.0000
 3773OM     OM1 3773   9.175   6.865   1.186  0.0000  0.0000  0.0000
 3774OM     OM1 3774   9.347   6.878   0.996  0.0000  0.0000  0.0000
 3775OM     OM1 3775   9.339   6.659   1.140  0.0000  0.0000  0.0000
 3776OM     OM1 3776   7.322   5.789   8.358  0.0000  0.0000  0.0000
 3777OM     OM1 3777   7.447   5.692   8.567  0.0000  0.0000  0.0000
 3778OM     OM1 3778   7.463   5.947   8.531  0.0000  0.0000  0.0000
 3779OM     OM1 3779   7.590   5.786   8.379  0.0000  0.0000  0.0000
 3780OM     OM1 3780   8.554   5.989   0.395  0.0000  0.0000  0.0000
 3781OM     OM1 3781   8.563   5.882   0.148  0.0000  0.0000  0.0000
 3782OM     OM1 3782   8.604   5.747   0.357  0.0000  0.0000  0.0000
 3783OM     OM1 3783   8.360   5.862   0.330  0.0000  0.0000  0.0000
 3784OM     OM1 3784   5.031   8.772   0.952  0.0000  0.0000  0.0000
 3785OM     OM1 3785   5.021   8.838   0.704  0.0000  0.0000  0.0000
 3786OM     OM1 3786   4.928   9.000   0.890  0.0000  0.0000  0.0000
 3787OM     OM1 3787   6.952   7.277   0.585  0.0000  0.0000  0.0000
 3788OM     OM1 3788   6.702   7.231   0.544  0.0000  0.0000  0.0000
 3789OM     OM1 3789   6.785   7.347   0.772  0.0000  0.0000  0.0000
 3790OM     OM1 3790   2.344   9.335   0.328  0.0000  0.0000  0.0000
 3791OM     OM1 3791   2.261   9.564   0.433  0.0000  0.0000  0.0000
 3792OM     OM1 3792   2.110   9.424   0.289  0.0000  0.0000  0.0000
 3793OM     OM1 3793   2.915   8.316   8.795  0.0000  0.0000  0.0000
 3794OM     OM1 3794   2.682   8.316   8.675  0.0000  0.0000  0.0000
 3795OM     OM1 3795   2.775   8.103   8.782  0.0000  0.0000  0.0000
 3796OM     OM1 3796   2.701   8.334   8.929  0.0000  0.0000  0.0000
 3797OM     OM1 3797   2.625   6.555   0.411  0.0000  0.0000  0.0000
 3798OM     OM1 3798   2.824   6.391   0.390  0.0000  0.0000  0.0000
 3799OM     OM1 3799   2.766   6.528   0.178  0.0000  0.0000  0.0000
 3800OM     OM1 3800   2.606   6.343   0.258  0.0000  0.0000  0.0000
 3801OM     OM1 3801   1.738   4.324   0.671  0.0000  0.0000  0.0000
 3802OM     OM1 3802   1.496   4.277   0.759  0.0000  0.0000  0.0000
 3803OM     OM1 3803   1.569   4.517   0.674  0.0000  0.0000  0.0000
 3804OM     OM1 3804   1.662   4.422   0.894  0.0000  0.0000  0.0000
 3805OM     OM1 3805   6.780   7.474   0.542  0.0000  0.0000  0.0000
 3806OM     OM1 3806   6.490   7.316   0.660  0.0000  0.0000  0.0000
 3807OM     OM1 3807   6.459   7.112   0.505  0.0000  0.0000  0.0000
 3808OM     OM1 3808   9.323   1.561   8.987  0.0000  0.0000  0.0000
 3809OM     OM1 3809   9.215   1.804   8.964  0.0000  0.0000  0.0000
 3810OM     OM1 3810   9.478   1.764   8.971  0.0000  0.0000  0.0000
 3811OM     OM1 3811   9.326   1.730   9.183  0.0000  0.0000  0.0000
 3812OM     OM1 3812   1.189   1.890   9.198  0.0000  0.0000  0.0000
 3813OM     OM1 3813   1.043   1.595   9.487  0.0000  0.0000  0.0000
 3814OM     OM1 3814   1.303   1.645   9.466  0.0000  0.0000  0.0000
 3815OM     OM1 3815   1.140   1.839   9.447  0.0000  0.0000  0.0000
 3816OM     OM1 3816   4.692   5.773   8.963  0.0000  0.0000  0.0000
 3817OM     OM1 3817   4.472   5.718   9.077  0.0000  0.0000  0.0000
 3818OM     OM1 3818   4.659   5.834   9.218  0.0000  0.0000  0.0000
 3819OM     OM1 3819   7.875   1.574   9.526  0.0000  0.0000  0.0000
 3820OM     OM1 3820   7.897   1.764   9.332  0.0000  0.0000  0.0000
 3821OM     OM1 3821   7.796   1.539   9.282  0.0000  0.0000  0.0000
 3822OM     OM1 3822   7.665   1.715   9.430  0.0000  0.0000  0.0000
 3823OM     OM1 3823   9.344   0.776   0.813  0.0000  0.0000  0.0000
 3824OM     OM1 3824   9.439   0.819   0.581  0.0000  0.0000  0.0000
 3825OM     OM1 3825   9.182   0.762   0.604  0.0000  0.0000  0.0000
 3826OM     OM1 3826   1.507   9.592   0.398  0.0000  0.0000  0.0000
 3827OM     OM1 3827   1.703   9.424   0.380  0.0000  0.0000  0.0000
 3828OM     OM1 3828   1.717   0.048   0.251  0.0000  0.0000  0.0000
 3829OM     OM1 3829   7.395   3.095   0.311  0.0000  0.0000  0.0000
 3830OM     OM1 3830   7.466   3.099   0.066  0.0000  0.0000  0.0000
 3831OM     OM1 3831   7.222   3.042   0.102  0.0000  0.0000  0.0000
 3832OM     OM1 3832   8.250   7.981   8.362  0.0000  0.0000  0.0000
 3833OM     OM1 3833   8.232   8.104   8.726  0.0000  0.0000  0.0000
 3834OM     OM1 3834   8.289   7.729   8.341  0.0000  0.0000  0.0000
 3835OM     OM1 3835   8.313   1.926   8.861  0.0000  0.0000  0.0000
 3836OM     OM1 3836   8.494   1.724   8.883  0.0000  0.0000  0.0000
 3837OM     OM1 3837   8.341   1.787   9.075  0.0000  0.0000  0.0000
 3838OM     OM1 3838   6.751   9.564   0.589  0.0000  0.0000  0.0000
 3839OM     OM1 3839   7.010   9.596   0.600  0.0000  0.0000  0.0000
 3840OM     OM1 3840   6.883   9.590   0.366  0.0000  0.0000  0.0000
 3841OM     OM1 3841   6.911   9.377   0.496  0.0000  0.0000  0.0000
 3842OM     OM1 3842   9.167   9.222   8.994  0.0000  0.0000  0.0000
 3843OM     OM1 3843   9.271   9.084   8.810  0.0000  0.0000  0.0000
 3844OM     OM1 3844   9.010   9.125   8.804  0.0000  0.0000  0.0000
 3845OM     OM1 3845   0.822   8.141   8.295  0.0000  0.0000  0.0000
 3846OM     OM1 3846   0.803   8.017   8.518  0.0000  0.0000  0.0000
 3847OM     OM1 3847   0.618   8.214   8.443  0.0000  0.0000  0.0000
 3848OM     OM1 3848   0.856   8.259   8.526  0.0000  0.0000  0.0000
 3849OM     OM1 3849   1.203   6.617   9.488  0.0000  0.0000  0.0000
 3850OM     OM1 3850   0.976   6.555   9.385  0.0000  0.0000  0.0000
 3851OM     OM1 3851   1.031   6.467   0.014  0.0000  0.0000  0.0000
 3852OM     OM1 3852   0.970   3.420   0.818  0.0000  0.0000  0.0000
 3853OM     OM1 3853   1.137   3.474   0.636  0.0000  0.0000  0.0000
 3854OM     OM1 3854   1.197   3.544   0.880  0.0000  0.0000  0.0000
 3855OM     OM1 3855   7.895   3.822   0.202  0.0000  0.0000  0.0000
 3856OM     OM1 3856   7.918   3.599   0.337  0.0000  0.0000  0.0000
 3857OM     OM1 3857   8.060   3.803   0.406  0.0000  0.0000  0.0000
 3858OM     OM1 3858   8.106   3.670   0.176  0.0000  0.0000  0.0000
 3859OM     OM1 3859   6.316   4.850   9.478  0.0000  0.0000  0.0000
 3860OM     OM1 3860   6.146   4.787   0.065  0.0000  0.0000  0.0000
 3861OM     OM1 3861   6.104   4.719   9.427  0.0000  0.0000  0.0000
 3862OM     OM1 3862   6.079   4.970   9.494  0.0000  0.0000  0.0000
 3863OM     OM1 3863   2.352   8.196   0.084  0.0000  0.0000  0.0000
 3864OM     OM1 3864   2.141   8.345   0.089  0.0000  0.0000  0.0000
 3865OM     OM1 3865   2.254   8.256   0.315  0.0000  0.0000  0.0000
 3866OM     OM1 3866   2.369   8.437   0.173  0.0000  0.0000  0.0000
 3867OM     OM1 3867   2.555   6.797   0.388  0.0000  0.0000  0.0000
 3868OM     OM1 3868   2.351   6.873   0.250  0.0000  0.0000  0.0000
 3869OM     OM1 3869   4.292   3.939   9.375  0.0000  0.0000  0.0000
 3870OM     OM1 3870   6.634   7.682   0.441  0.0000  0.0000  0.0000
 3871OM     OM1 3871   6.780   7.533   0.288  0.0000  0.0000  0.0000
 3872OM     OM1 3872   6.886   7.691   0.449  0.0000  0.0000  0.0000
 3873OM     OM1 3873   5.069   0.834   9.519  0.0000  0.0000  0.0000
 3874OM     OM1 3874   4.811   0.819   9.436  0.0000  0.0000  0.0000
 3875OM     OM1 3875   4.957   1.025   9.404  0.0000  0.0000  0.0000
 3876OM     OM1 3876   4.877   0.940   0.051  0.0000  0.0000  0.0000
 3877OM     OM1 3877   9.415   8.482   8.427  0.0000  0.0000  0.0000
 3878OM     OM1 3878   9.175   8.384   8.364  0.0000  0.0000  0.0000
 3879OM     OM1 3879   7.694   4.636   1.191  0.0000  0.0000  0.0000
 3880OM     OM1 3880   7.461   4.739   1.242  0.0000  0.0000  0.0000
 3881OM     OM1 3881   7.645   4.895   1.144  0.0000  0.0000  0.0000
 3882OM     OM1 3882   5.631   0.052   8.686  0.0000  0.0000  0.0000
 3883OM     OM1 3883   5.450   9.489   8.590  0.0000  0.0000  0.0000
 3884OM     OM1 3884   5.718   9.456   8.545  0.0000  0.0000  0.0000
 3885OM     OM1 3885   5.575   0.036   8.430  0.0000  0.0000  0.0000
 3886OM     OM1 3886   7.197   3.808   9.216  0.0000  0.0000  0.0000
 3887OM     OM1 3887   6.973   3.800   9.094  0.0000  0.0000  0.0000
 3888OM     OM1 3888   6.999   3.676   9.326  0.0000  0.0000  0.0000
 3889OM     OM1 3889   4.444   3.424   0.097  0.0000  0.0000  0.0000
 3890OM     OM1 3890   4.506   3.423   9.454  0.0000  0.0000  0.0000
 3891OM     OM1 3891   4.316   3.253   9.529  0.0000  0.0000  0.0000
 3892OM     OM1 3892   5.079   7.861   0.822  0.0000  0.0000  0.0000
 3893OM     OM1 3893   4.971   8.016   1.013  0.0000  0.0000  0.0000
 3894OM     OM1 3894   4.819   7.895   0.837  0.0000  0.0000  0.0000
 3895OM     OM1 3895   4.728   9.359   9.119  0.0000  0.0000  0.0000
 3896OM     OM1 3896   4.941   9.264   9.241  0.0000  0.0000  0.0000
 3897OM     OM1 3897   4.725   9.304   9.373  0.0000  0.0000  0.0000
 3898OM     OM1 3898   4.742   9.101   9.210  0.0000  0.0000  0.0000
 3899OM     OM1 3899   2.266   8.550   1.093  0.0000  0.0000  0.0000
 3900OM     OM1 3900   2.404   8.489   0.878  0.0000  0.0000  0.0000
 3901OM     OM1 3901   2.429   8.347   1.084  0.0000  0.0000  0.0000
 3902OM     OM1 3902   3.331   8.165   1.053  0.0000  0.0000  0.0000
 3903OM     OM1 3903   3.530   8.250   0.922  0.0000  0.0000  0.0000
 3904OM     OM1 3904   3.538   8.219   1.190  0.0000  0.0000  0.0000
 3905OM     OM1 3905   3.546   8.012   1.031  0.0000  0.0000  0.0000
 3906OM     OM1 3906   2.718   5.231   0.537  0.0000  0.0000  0.0000
 3907OM     OM1 3907   2.878   5.400   0.424  0.0000  0.0000  0.0000
 3908OM     OM1 3908   2.944   5.281   0.648  0.0000  0.0000  0.0000
 3909OM     OM1 3909   2.767   5.476   0.638  0.0000  0.0000  0.0000
 3910OM     OM1 3910   8.803   2.138   0.293  0.0000  0.0000  0.0000
 3911OM     OM1 3911   8.649   2.337   0.204  0.0000  0.0000  0.0000
 3912OM     OM1 3912   8.553   2.093   0.201  0.0000  0.0000  0.0000
 3913OM     OM1 3913   5.137   4.495   8.707  0.0000  0.0000  0.0000
 3914OM     OM1 3914   5.089   4.597   8.476  0.0000  0.0000  0.0000
 3915OM     OM1 3915   8.431   4.910   8.969  0.0000  0.0000  0.0000
 3916OM     OM1 3916   8.270   5.078   8.848  0.0000  0.0000  0.0000
 3917OM     OM1 3917   8.490   5.165   8.963  0.0000  0.0000  0.0000
 3918OM     OM1 3918   8.505   5.021   8.745  0.0000  0.0000  0.0000
 3919OM     OM1 3919   5.220   0.223   0.967  0.0000  0.0000  0.0000
 3920OM     OM1 3920   5.230   0.385   0.764  0.0000  0.0000  0.0000
 3921OM     OM1 3921   4.979   0.361   0.732  0.0000  0.0000  0.0000
 3922OM     OM1 3922   3.372   6.915   1.340  0.0000  0.0000  0.0000
 3923OM     OM1 3923   3.545   6.806   1.186  0.0000  0.0000  0.0000
 3924OM     OM1 3924   0.072   3.903   9.229  0.0000  0.0000  0.0000
 3925OM     OM1 3925   0.298   3.916   9.133  0.0000  0.0000  0.0000
 3926OM     OM1 3926   0.250   3.705   9.273  0.0000  0.0000  0.0000
 3927OM     OM1 3927   2.707   2.448   8.463  0.0000  0.0000  0.0000
 3928OM     OM1 3928   2.585   2.617   8.606  0.0000  0.0000  0.0000
 3929OM     OM1 3929   4.084   8.749   1.164  0.0000  0.0000  0.0000
 3930OM     OM1 3930   4.319   8.642   1.247  0.0000  0.0000  0.0000
 3931OM     OM1 3931   8.887   3.171   0.085  0.0000  0.0000  0.0000
 3932OM     OM1 3932   9.050   2.965   0.129  0.0000  0.0000  0.0000
 3933OM     OM1 3933   8.778   2.947   0.137  0.0000  0.0000  0.0000
 3934OM     OM1 3934   8.922   2.978   9.521  0.0000  0.0000  0.0000
 3935OM     OM1 3935   0.573   3.033   1.278  0.0000  0.0000  0.0000
 3936OM     OM1 3936   0.799   2.984   1.172  0.0000  0.0000  0.0000
 3937OM     OM1 3937   3.598   6.097   9.515  0.0000  0.0000  0.0000
 3938OM     OM1 3938   3.680   5.903   0.074  0.0000  0.0000  0.0000
 3939OM     OM1 3939   1.606   9.166   1.056  0.0000  0.0000  0.0000
 3940OM     OM1 3940   1.723   9.033   0.869  0.0000  0.0000  0.0000
 3941OM     OM1 3941   1.476   9.090   0.837  0.0000  0.0000  0.0000
 3942OM     OM1 3942   1.668   9.282   0.837  0.0000  0.0000  0.0000
 3943OM     OM1 3943   1.977   3.226   9.003  0.0000  0.0000  0.0000
 3944OM     OM1 3944   1.788   3.287   8.828  0.0000  0.0000  0.0000
 3945OM     OM1 3945   1.884   3.468   8.971  0.0000  0.0000  0.0000
 3946OM     OM1 3946   5.803   8.482   8.488  0.0000  0.0000  0.0000
 3947OM     OM1 3947   0.342   3.261   9.517  0.0000  0.0000  0.0000
 3948OM     OM1 3948   0.166   3.109   0.029  0.0000  0.0000  0.0000
 3949OM     OM1 3949   0.339   3.002   9.474  0.0000  0.0000  0.0000
 3950OM     OM1 3950   7.784   5.980   0.370  0.0000  0.0000  0.0000
 3951OM     OM1 3951   7.742   6.214   0.470  0.0000  0.0000  0.0000
 3952OM     OM1 3952   7.671   6.000   0.610  0.0000  0.0000  0.0000
 3953OM     OM1 3953   7.920   6.059   0.583  0.0000  0.0000  0.0000
 3954OM     OM1 3954   2.891   0.229   1.039  0.0000  0.0000  0.0000
 3955OM     OM1 3955   2.779   0.011   0.923  0.0000  0.0000  0.0000
 3956OM     OM1 3956   2.760   0.286   1.246  0.0000  0.0000  0.0000
 3957OM     OM1 3957   2.726   0.241   0.855  0.0000  0.0000  0.0000
 3958OM     OM1 3958   8.882   1.114   0.771  0.0000  0.0000  0.0000
 3959OM     OM1 3959   9.049   0.977   0.626  0.0000  0.0000  0.0000
 3960OM     OM1 3960   2.077   0.577   0.325  0.0000  0.0000  0.0000
 3961OM     OM1 3961   2.038   0.600   0.076  0.0000  0.0000  0.0000
 3962OM     OM1 3962   6.567   7.082   0.225  0.0000  0.0000  0.0000
 3963OM     OM1 3963   6.395   7.017   0.051  0.0000  0.0000  0.0000
 3964OM     OM1 3964   6.382   7.254   0.159  0.0000  0.0000  0.0000
 3965OM     OM1 3965   6.313   7.052   0.306  0.0000  0.0000  0.0000
 3966OM     OM1 3966   5.560   2.362   9.401  0.0000  0.0000  0.0000
 3967OM     OM1 3967   5.691   2.585   9.364  0.0000  0.0000  0.0000
 3968OM     OM1 3968   5.434   2.572   9.484  0.0000  0.0000  0.0000
 3969OM     OM1 3969   5.472   2.537   9.240  0.0000  0.0000  0.0000
 3970OM     OM1 3970   5.446   2.419   8.701  0.0000  0.0000  0.0000
 3971OM     OM1 3971   5.373   2.173   8.609  0.0000  0.0000  0.0000
 3972OM     OM1 3972   5.186   2.291   9.012  0.0000  0.0000  0.0000
 3973OM     OM1 3973   0.481   6.254   8.663  0.0000  0.0000  0.0000
 3974OM     OM1 3974   0.444   6.182   8.417  0.0000  0.0000  0.0000
 3975OM     OM1 3975   0.689   6.177   8.538  0.0000  0.0000  0.0000
 3976OM     OM1 3976   0.592   6.390   8.449  0.0000  0.0000  0.0000
 3977OM     OM1 3977   5.079   9.472   9.177  0.0000  0.0000  0.0000
 3978OM     OM1 3978   5.103   0.045   8.988  0.0000  0.0000  0.0000
 3979OM     OM1 3979   8.346   8.699   0.226  0.0000  0.0000  0.0000
 3980OM     OM1 3980   8.166   8.511   0.176  0.0000  0.0000  0.0000
 3981OM     OM1 3981   8.106   8.767   0.127  0.0000  0.0000  0.0000
 3982OM     OM1 3982   3.530   7.809   0.872  0.0000  0.0000  0.0000
 3983OM     OM1 3983   3.649   7.786   1.106  0.0000  0.0000  0.0000
 3984OM     OM1 3984   3.767   7.917   0.916  0.0000  0.0000  0.0000
 3985OM     OM1 3985   0.407   5.046   0.336  0.0000  0.0000  0.0000
 3986OM     OM1 3986   0.190   4.941   0.221  0.0000  0.0000  0.0000
 3987OM     OM1 3987   0.423   4.897   0.129  0.0000  0.0000  0.0000
 3988OM     OM1 3988   0.336   4.806   0.381  0.0000  0.0000  0.0000
 3989OM     OM1 3989   7.352   1.958   9.109  0.0000  0.0000  0.0000
 3990OM     OM1 3990   7.343   2.126   9.303  0.0000  0.0000  0.0000
 3991OM     OM1 3991   7.147   1.926   9.268  0.0000  0.0000  0.0000
 3992OM     OM1 3992   7.155   2.137   9.128  0.0000  0.0000  0.0000
 3993OM     OM1 3993   4.012   8.183   8.450  0.0000  0.0000  0.0000
 3994OM     OM1 3994   3.872   8.048   8.627  0.0000  0.0000  0.0000
 3995OM     OM1 3995   4.102   7.960   8.545  0.0000  0.0000  0.0000
 3996OM     OM1 3996   4.080   8.177   8.704  0.0000  0.0000  0.0000
 3997OM     OM1 3997   3.999   2.829   9.156  0.0000  0.0000  0.0000
 3998OM     OM1 3998   4.004   2.905   8.917  0.0000  0.0000  0.0000
 3999OM     OM1 3999   3.966   3.096   9.075  0.0000  0.0000  0.0000
 4000OM     OM1 4000   1.270   4.719   0.841  0.0000  0.0000  0.0000
 4001OM     OM1 4001   1.039   4.812   0.899  0.0000  0.0000  0.0000
 4002OM     OM1 4002   1.061   4.675   0.682  0.0000  0.0000  0.0000
 4003OM     OM1 4003   7.505   4.059   0.582  0.0000  0.0000  0.0000
 4004OM     OM1 4004   7.356   3.854   0.655  0.0000  0.0000  0.0000
 4005OM     OM1 4005   7.286   6.515   0.694  0.0000  0.0000  0.0000
 4006OM     OM1 4006   7.051   6.421   0.657  0.0000  0.0000  0.0000
 4007OM     OM1 4007   7.240   6.251   0.703  0.0000  0.0000  0.0000
 4008OM     OM1 4008   7.143   6.427   0.890  0.0000  0.0000  0.0000
 4009OM     OM1 4009   5.089   9.570   0.469  0.0000  0.0000  0.0000
 4010OM     OM1 4010   5.181   9.424   0.670  0.0000  0.0000  0.0000
 4011OM     OM1 4011   5.264   9.395   0.409  0.0000  0.0000  0.0000
 4012OM     OM1 4012   5.236   1.979   8.728  0.0000  0.0000  0.0000
 4013OM     OM1 4013   5.318   1.942   8.497  0.0000  0.0000  0.0000
 4014OM     OM1 4014   2.765   0.020   1.232  0.0000  0.0000  0.0000
 4015OM     OM1 4015   2.844   9.393   1.140  0.0000  0.0000  0.0000
 4016OM     OM1 4016   2.609   9.418   1.273  0.0000  0.0000  0.0000
 4017OM     OM1 4017   1.182   0.401   8.454  0.0000  0.0000  0.0000
 4018OM     OM1 4018   1.350   0.320   8.279  0.0000  0.0000  0.0000
 4019OM     OM1 4019   0.021   8.428   0.357  0.0000  0.0000  0.0000
 4020OM     OM1 4020   0.112   8.213   0.489  0.0000  0.0000  0.0000
 4021OM     OM1 4021   0.018   8.201   0.243  0.0000  0.0000  0.0000
 4022OM     OM1 4022   7.795   6.058   1.042  0.0000  0.0000  0.0000
 4023OM     OM1 4023   7.582   6.332   1.176  0.0000  0.0000  0.0000
 4024OM     OM1 4024   7.575   6.421   0.937  0.0000  0.0000  0.0000
 4025OM     OM1 4025   7.562   6.151   0.996  0.0000  0.0000  0.0000
 4026OM     OM1 4026   7.147   2.925   9.201  0.0000  0.0000  0.0000
 4027OM     OM1 4027   7.170   2.972   8.944  0.0000  0.0000  0.0000
 4028OM     OM1 4028   3.404   0.894   1.107  0.0000  0.0000  0.0000
 4029OM     OM1 4029   3.658   0.963   1.178  0.0000  0.0000  0.0000
 4030OM     OM1 4030   5.526   5.468   8.722  0.0000  0.0000  0.0000
 4031OM     OM1 4031   5.309   5.237   8.382  0.0000  0.0000  0.0000
 4032OM     OM1 4032   5.482   5.388   8.247  0.0000  0.0000  0.0000
 4033OM     OM1 4033   3.285   9.022   1.401  0.0000  0.0000  0.0000
 4034OM     OM1 4034   3.111   9.077   1.224  0.0000  0.0000  0.0000
 4035OM     OM1 4035   2.777   4.298   0.156  0.0000  0.0000  0.0000
 4036OM     OM1 4036   2.964   4.730   0.053  0.0000  0.0000  0.0000
 4037OM     OM1 4037   2.835   4.388   9.527  0.0000  0.0000  0.0000
 4038OM     OM1 4038   2.792   4.554   0.130  0.0000  0.0000  0.0000
 4039OM     OM1 4039   6.088   5.803   9.134  0.0000  0.0000  0.0000
 4040OM     OM1 4040   5.947   5.633   9.270  0.0000  0.0000  0.0000
 4041OM     OM1 4041   0.719   0.801   1.234  0.0000  0.0000  0.0000
 4042OM     OM1 4042   0.509   0.684   1.150  0.0000  0.0000  0.0000
 4043OM     OM1 4043   6.830   0.555   9.135  0.0000  0.0000  0.0000
 4044OM     OM1 4044   6.798   0.309   9.065  0.0000  0.0000  0.0000
 4045OM     OM1 4045   7.037   0.397   9.151  0.0000  0.0000  0.0000
 4046OM     OM1 4046   5.162   6.574   0.490  0.0000  0.0000  0.0000
 4047OM     OM1 4047   5.277   6.501   0.272  0.0000  0.0000  0.0000
 4048OM     OM1 4048   5.189   6.317   0.434  0.0000  0.0000  0.0000
 4049OM     OM1 4049   0.150   2.162   1.163  0.0000  0.0000  0.0000
 4050OM     OM1 4050   0.204   2.374   1.285  0.0000  0.0000  0.0000
 4051OM     OM1 4051   9.582   2.224   1.339  0.0000  0.0000  0.0000
 4052OM     OM1 4052   0.012   2.384   1.121  0.0000  0.0000  0.0000
 4053OM     OM1 4053   2.002   1.706   8.651  0.0000  0.0000  0.0000
 4054OM     OM1 4054   2.002   1.439   8.714  0.0000  0.0000  0.0000
 4055OM     OM1 4055   1.779   1.580   8.708  0.0000  0.0000  0.0000
 4056OM     OM1 4056   5.626   7.762   8.714  0.0000  0.0000  0.0000
 4057OM     OM1 4057   5.703   7.904   8.497  0.0000  0.0000  0.0000
 4058OM     OM1 4058   5.846   7.899   8.720  0.0000  0.0000  0.0000
 4059OM     OM1 4059   3.842   3.778   8.618  0.0000  0.0000  0.0000
 4060OM     OM1 4060   3.759   3.873   8.386  0.0000  0.0000  0.0000
 4061OM     OM1 4061   3.611   3.705   8.502  0.0000  0.0000  0.0000
 4062OM     OM1 4062   8.241   6.243   8.836  0.0000  0.0000  0.0000
 4063OM     OM1 4063   8.056   6.289   8.660  0.0000  0.0000  0.0000
 4064OM     OM1 4064   8.169   6.050   8.680  0.0000  0.0000  0.0000
 4065OM     OM1 4065   8.006   6.132   8.862  0.0000  0.0000  0.0000
 4066OM     OM1 4066   1.044   9.142   0.851  0.0000  0.0000  0.0000
 4067OM     OM1 4067   1.019   9.000   0.625  0.0000  0.0000  0.0000
 4068OM     OM1 4068   0.920   9.337   0.972  0.0000  0.0000  0.0000
 4069OM     OM1 4069   4.639   7.135   0.705  0.0000  0.0000  0.0000
 4070OM     OM1 4070   4.206   1.808   9.158  0.0000  0.0000  0.0000
 4071OM     OM1 4071   3.967   1.896   9.102  0.0000  0.0000  0.0000
 4072OM     OM1 4072   4.159   2.065   9.082  0.0000  0.0000  0.0000
 4073OM     OM1 4073   4.085   1.971   9.319  0.0000  0.0000  0.0000
 4074OM     OM1 4074   8.812   3.967   8.714  0.0000  0.0000  0.0000
 4075OM     OM1 4075   8.846   3.821   8.500  0.0000  0.0000  0.0000
 4076OM     OM1 4076   8.960   4.057   8.525  0.0000  0.0000  0.0000
 4077OM     OM1 4077   4.303   0.661   8.650  0.0000  0.0000  0.0000
 4078OM     OM1 4078   4.494   0.704   8.815  0.0000  0.0000  0.0000
 4079OM     OM1 4079   4.364   0.917   8.710  0.0000  0.0000  0.0000
 4080OM     OM1 4080   4.515   0.777   8.563  0.0000  0.0000  0.0000
 4081OM     OM1 4081   1.708   9.384   8.489  0.0000  0.0000  0.0000
 4082OM     OM1 4082   1.342   0.103   8.430  0.0000  0.0000  0.0000
 4083OM     OM1 4083   1.417   0.043   8.669  0.0000  0.0000  0.0000
 4084OM     OM1 4084   8.616   4.398   8.560  0.0000  0.0000  0.0000
 4085OM     OM1 4085   8.619   4.657   8.494  0.0000  0.0000  0.0000
 4086OM     OM1 4086   8.001   4.091   8.544  0.0000  0.0000  0.0000
 4087OM     OM1 4087   7.911   4.097   8.304  0.0000  0.0000  0.0000
 4088OM     OM1 4088   7.775   3.971   8.474  0.0000  0.0000  0.0000
 4089OM     OM1 4089   5.700   8.874   0.943  0.0000  0.0000  0.0000
 4090OM     OM1 4090   5.609   8.998   0.736  0.0000  0.0000  0.0000
 4091OM     OM1 4091   5.856   9.027   0.797  0.0000  0.0000  0.0000
 4092OM     OM1 4092   3.168   4.948   9.242  0.0000  0.0000  0.0000
 4093OM     OM1 4093   3.339   4.795   9.137  0.0000  0.0000  0.0000
 4094OM     OM1 4094   3.392   4.895   9.379  0.0000  0.0000  0.0000
 4095OM     OM1 4095   3.404   5.045   9.164  0.0000  0.0000  0.0000
 4096OM     OM1 4096   4.872   1.814   9.056  0.0000  0.0000  0.0000
 4097OM     OM1 4097   4.986   1.618   8.908  0.0000  0.0000  0.0000
 4098OM     OM1 4098   4.767   1.573   9.057  0.0000  0.0000  0.0000
 4099OM     OM1 4099   4.759   1.720   8.845  0.0000  0.0000  0.0000
 4100OM     OM1 4100   6.534   8.870   0.060  0.0000  0.0000  0.0000
 4101OM     OM1 4101   6.422   8.828   0.289  0.0000  0.0000  0.0000
 4102OM     OM1 4102   1.787   0.884   8.401  0.0000  0.0000  0.0000
 4103OM     OM1 4103   1.954   1.092   8.441  0.0000  0.0000  0.0000
 4104OM     OM1 4104   6.750   0.100   9.199  0.0000  0.0000  0.0000
 4105OM     OM1 4105   6.620   0.136   8.965  0.0000  0.0000  0.0000
 4106OM     OM1 4106   6.881   0.089   8.970  0.0000  0.0000  0.0000
 4107OM     OM1 4107   6.275   3.719   8.482  0.0000  0.0000  0.0000
 4108OM     OM1 4108   6.390   3.946   8.390  0.0000  0.0000  0.0000
 4109OM     OM1 4109   6.487   4.159   8.474  0.0000  0.0000  0.0000
 4110OM     OM1 4110   6.226   4.131   8.460  0.0000  0.0000  0.0000
 4111OM     OM1 4111   9.180   4.524   1.432  0.0000  0.0000  0.0000
 4112OM     OM1 4112   3.133   0.679   9.303  0.0000  0.0000  0.0000
 4113OM     OM1 4113   3.067   0.437   9.374  0.0000  0.0000  0.0000
 4114OM     OM1 4114   0.732   0.125   0.768  0.0000  0.0000  0.0000
 4115OM     OM1 4115   0.545   9.543   0.800  0.0000  0.0000  0.0000
 4116OM     OM1 4116   0.557   0.144   0.967  0.0000  0.0000  0.0000
 4117OM     OM1 4117   0.483   0.180   0.723  0.0000  0.0000  0.0000
 4118OM     OM1 4118   5.965   7.285   8.352  0.0000  0.0000  0.0000
 4119OM     OM1 4119   5.738   7.193   8.421  0.0000  0.0000  0.0000
 4120OM     OM1 4120   2.572   1.856   9.546  0.0000  0.0000  0.0000
 4121OM     OM1 4121   2.574   1.943   9.301  0.0000  0.0000  0.0000
 4122OM     OM1 4122   2.600   2.110   9.490  0.0000  0.0000  0.0000
 4123OM     OM1 4123   2.364   1.989   9.458  0.0000  0.0000  0.0000
 4124OM     OM1 4124   3.904   2.416   0.565  0.0000  0.0000  0.0000
 4125OM     OM1 4125   3.970   2.167   0.538  0.0000  0.0000  0.0000
 4126OM     OM1 4126   4.101   2.355   0.411  0.0000  0.0000  0.0000
 4127OM     OM1 4127   3.860   2.270   0.336  0.0000  0.0000  0.0000
 4128OM     OM1 4128   1.163   7.068   9.324  0.0000  0.0000  0.0000
 4129OM     OM1 4129   1.078   6.850   9.212  0.0000  0.0000  0.0000
 4130OM     OM1 4130   9.248   8.035   9.280  0.0000  0.0000  0.0000
 4131OM     OM1 4131   9.086   8.135   9.472  0.0000  0.0000  0.0000
 4132OM     OM1 4132   7.073   0.938   9.596  0.0000  0.0000  0.0000
 4133OM     OM1 4133   7.248   1.120   0.002  0.0000  0.0000  0.0000
 4134OM     OM1 4134   7.075   1.107   0.195  0.0000  0.0000  0.0000
 4135OM     OM1 4135   8.616   4.344   8.816  0.0000  0.0000  0.0000
 4136OM     OM1 4136   8.585   4.416   9.064  0.0000  0.0000  0.0000
 4137OM     OM1 4137   8.803   4.288   8.992  0.0000  0.0000  0.0000
 4138OM     OM1 4138   8.947   0.478   0.756  0.0000  0.0000  0.0000
 4139OM     OM1 4139   8.734   0.504   0.879  0.0000  0.0000  0.0000
 4140OM     OM1 4140   8.731   0.422   0.612  0.0000  0.0000  0.0000
 4141OM     OM1 4141   9.122   0.271   0.059  0.0000  0.0000  0.0000
 4142OM     OM1 4142   9.079   0.520   0.028  0.0000  0.0000  0.0000
 4143OM     OM1 4143   9.144   0.353   9.426  0.0000  0.0000  0.0000
 4144OM     OM1 4144   8.908   0.367   9.513  0.0000  0.0000  0.0000
 4145OM     OM1 4145   7.384   3.014   8.789  0.0000  0.0000  0.0000
 4146OM     OM1 4146   7.545   2.825   8.699  0.0000  0.0000  0.0000
 4147OM     OM1 4147   7.576   2.936   8.934  0.0000  0.0000  0.0000
 4148OM     OM1 4148   7.638   3.062   8.706  0.0000  0.0000  0.0000
 4149OM     OM1 4149   8.109   9.571   0.990  0.0000  0.0000  0.0000
 4150OM     OM1 4150   8.175   0.016   1.247  0.0000  0.0000  0.0000
 4151OM     OM1 4151   2.083   1.402   0.914  0.0000  0.0000  0.0000
 4152OM     OM1 4152   1.846   1.394   0.812  0.0000  0.0000  0.0000
 4153OM     OM1 4153   1.896   1.543   1.022  0.0000  0.0000  0.0000
 4154OM     OM1 4154   0.949   1.150   0.227  0.0000  0.0000  0.0000
 4155OM     OM1 4155   1.193   1.231   0.247  0.0000  0.0000  0.0000
 4156OM     OM1 4156   0.987   1.408   0.236  0.0000  0.0000  0.0000
 4157OM     OM1 4157   1.028   1.256   0.446  0.0000  0.0000  0.0000
 4158OM     OM1 4158   8.564   3.612   0.611  0.0000  0.0000  0.0000
 4159OM     OM1 4159   8.599   3.733   0.837  0.0000  0.0000  0.0000
 4160OM     OM1 4160   0.238   7.777   0.574  0.0000  0.0000  0.0000
 4161OM     OM1 4161   0.348   7.564   0.643  0.0000  0.0000  0.0000
 4162OM     OM1 4162   0.420   7.683   0.415  0.0000  0.0000  0.0000
 4163OM     OM1 4163   9.309   9.300   0.029  0.0000  0.0000  0.0000
 4164OM     OM1 4164   9.566   9.316   9.570  0.0000  0.0000  0.0000
 4165OM     OM1 4165   9.428   9.532   9.585  0.0000  0.0000  0.0000
 4166OM     OM1 4166   9.466   9.385   0.200  0.0000  0.0000  0.0000
 4167OM     OM1 4167   7.631   1.391   1.243  0.0000  0.0000  0.0000
 4168OM     OM1 4168   7.873   1.444   1.228  0.0000  0.0000  0.0000
 4169OM     OM1 4169   8.514   6.523   9.229  0.0000  0.0000  0.0000
 4170OM     OM1 4170   8.549   6.458   9.469  0.0000  0.0000  0.0000
 4171OM     OM1 4171   8.366   6.320   9.331  0.0000  0.0000  0.0000
 4172OM     OM1 4172   5.189   5.536   1.370  0.0000  0.0000  0.0000
 4173OM     OM1 4173   2.898   7.185   9.287  0.0000  0.0000  0.0000
 4174OM     OM1 4174   2.824   7.256   9.544  0.0000  0.0000  0.0000
 4175OM     OM1 4175   2.688   7.325   9.340  0.0000  0.0000  0.0000
 4176OM     OM1 4176   6.541   7.496   8.789  0.0000  0.0000  0.0000
 4177OM     OM1 4177   6.656   7.661   8.609  0.0000  0.0000  0.0000
 4178OM     OM1 4178   6.428   7.530   8.554  0.0000  0.0000  0.0000
 4179OM     OM1 4179   7.104   7.866   9.150  0.0000  0.0000  0.0000
 4180OM     OM1 4180   6.847   7.866   9.210  0.0000  0.0000  0.0000
 4181OM     OM1 4181   6.920   7.953   8.986  0.0000  0.0000  0.0000
 4182OM     OM1 4182   4.749   4.413   0.976  0.0000  0.0000  0.0000
 4183OM     OM1 4183   4.490   4.340   0.919  0.0000  0.0000  0.0000
 4184OM     OM1 4184   3.559   3.316   1.144  0.0000  0.0000  0.0000
 4185OM     OM1 4185   3.412   3.424   1.350  0.0000  0.0000  0.0000
 4186OM     OM1 4186   2.563   7.573   9.329  0.0000  0.0000  0.0000
 4187OM     OM1 4187   2.529   7.398   9.147  0.0000  0.0000  0.0000
 4188OM     OM1 4188   2.437   7.354   9.386  0.0000  0.0000  0.0000
 4189OM     OM1 4189   2.293   4.867   8.659  0.0000  0.0000  0.0000
 4190OM     OM1 4190   2.332   4.646   8.775  0.0000  0.0000  0.0000
 4191OM     OM1 4191   9.207   2.280   9.482  0.0000  0.0000  0.0000
 4192OM     OM1 4192   9.144   2.321   0.132  0.0000  0.0000  0.0000
 4193OM     OM1 4193   9.085   2.502   9.558  0.0000  0.0000  0.0000
 4194OM     OM1 4194   7.820   6.094   9.046  0.0000  0.0000  0.0000
 4195OM     OM1 4195   7.765   6.227   8.832  0.0000  0.0000  0.0000
 4196OM     OM1 4196   7.928   6.330   9.011  0.0000  0.0000  0.0000
 4197OM     OM1 4197   5.822   9.006   9.245  0.0000  0.0000  0.0000
 4198OM     OM1 4198   5.893   9.020   9.492  0.0000  0.0000  0.0000
 4199OM     OM1 4199   5.892   9.241   9.332  0.0000  0.0000  0.0000
 4200OM     OM1 4200   5.672   9.138   9.419  0.0000  0.0000  0.0000
 4201OM     OM1 4201   7.202   5.533   0.731  0.0000  0.0000  0.0000
 4202OM     OM1 4202   6.998   5.688   0.781  0.0000  0.0000  0.0000
 4203OM     OM1 4203   7.200   5.708   0.925  0.0000  0.0000  0.0000
 4204OM     OM1 4204   7.230   5.783   0.673  0.0000  0.0000  0.0000
 4205OM     OM1 4205   3.093   6.006   8.526  0.0000  0.0000  0.0000
 4206OM     OM1 4206   3.256   6.183   8.420  0.0000  0.0000  0.0000
 4207OM     OM1 4207   2.998   6.182   8.358  0.0000  0.0000  0.0000
 4208OM     OM1 4208   2.330   9.263   8.354  0.0000  0.0000  0.0000
 4209OM     OM1 4209   2.444   9.445   8.213  0.0000  0.0000  0.0000
 4210OM     OM1 4210   8.033   9.541   8.757  0.0000  0.0000  0.0000
 4211OM     OM1 4211   8.256   9.504   8.630  0.0000  0.0000  0.0000
 4212OM     OM1 4212   8.273   9.558   8.876  0.0000  0.0000  0.0000
 4213OM     OM1 4213   9.566   7.855   0.993  0.0000  0.0000  0.0000
 4214OM     OM1 4214   0.131   8.046   1.001  0.0000  0.0000  0.0000
 4215OM     OM1 4215   0.157   7.853   0.822  0.0000  0.0000  0.0000
 4216OM     OM1 4216   0.215   7.807   1.070  0.0000  0.0000  0.0000
 4217OM     OM1 4217   0.558   7.319   9.557  0.0000  0.0000  0.0000
 4218OM     OM1 4218   0.400   7.476   0.081  0.0000  0.0000  0.0000
 4219OM     OM1 4219   0.649   7.486   0.128  0.0000  0.0000  0.0000
 4220OM     OM1 4220   0.532   7.261   0.199  0.0000  0.0000  0.0000
 4221OM     OM1 4221   0.194   6.102   1.233  0.0000  0.0000  0.0000
 4222OM     OM1 4222   0.330   6.039   1.020  0.0000  0.0000  0.0000
 4223OM     OM1 4223   0.083   5.964   1.036  0.0000  0.0000  0.0000
 4224OM     OM1 4224   0.256   5.850   1.190  0.0000  0.0000  0.0000
 4225OM     OM1 4225   8.973   1.452   9.316  0.0000  0.0000  0.0000
 4226OM     OM1 4226   9.220   1.548   9.333  0.0000  0.0000  0.0000
 4227OM     OM1 4227   9.124   1.393   9.519  0.0000  0.0000  0.0000
 4228OM     OM1 4228   9.167   1.297   9.273  0.0000  0.0000  0.0000
 4229OM     OM1 4229   1.393   1.002   8.895  0.0000  0.0000  0.0000
 4230OM     OM1 4230   1.483   0.838   8.719  0.0000  0.0000  0.0000
 4231OM     OM1 4231   1.413   1.089   8.652  0.0000  0.0000  0.0000
 4232OM     OM1 4232   1.974   3.574   9.271  0.0000  0.0000  0.0000
 4233OM     OM1 4233   2.116   3.377   9.405  0.0000  0.0000  0.0000
 4234OM     OM1 4234   2.226   3.514   9.226  0.0000  0.0000  0.0000
 4235OM     OM1 4235   2.149   3.633   9.450  0.0000  0.0000  0.0000
 4236OM     OM1 4236   1.328   9.133   8.355  0.0000  0.0000  0.0000
 4237OM     OM1 4237   3.428   5.810   8.542  0.0000  0.0000  0.0000
 4238OM     OM1 4238   3.509   5.783   8.307  0.0000  0.0000  0.0000
 4239OM     OM1 4239   3.466   6.027   8.406  0.0000  0.0000  0.0000
 4240OM     OM1 4240   3.677   5.892   8.481  0.0000  0.0000  0.0000
 4241OM     OM1 4241   6.629   0.740   1.013  0.0000  0.0000  0.0000
 4242OM     OM1 4242   6.764   0.539   1.097  0.0000  0.0000  0.0000
 4243OM     OM1 4243   6.540   0.493   0.970  0.0000  0.0000  0.0000
 4244OM     OM1 4244   7.793   8.703   8.988  0.0000  0.0000  0.0000
 4245OM     OM1 4245   7.558   8.592   9.035  0.0000  0.0000  0.0000
 4246OM     OM1 4246   7.581   8.846   8.996  0.0000  0.0000  0.0000
 4247OM     OM1 4247   7.599   8.687   8.798  0.0000  0.0000  0.0000
 4248OM     OM1 4248   7.527   6.667   8.691  0.0000  0.0000  0.0000
 4249OM     OM1 4249   7.698   6.578   8.512  0.0000  0.0000  0.0000
 4250OM     OM1 4250   7.452   6.470   8.552  0.0000  0.0000  0.0000
 4251OM     OM1 4251   7.650   6.424   8.704  0.0000  0.0000  0.0000
 4252OM     OM1 4252   3.337   4.482   9.458  0.0000  0.0000  0.0000
 4253OM     OM1 4253   3.448   4.706   9.551  0.0000  0.0000  0.0000
 4254OM     OM1 4254   3.198   4.679   9.555  0.0000  0.0000  0.0000
 4255OM     OM1 4255   5.176   1.156   9.399  0.0000  0.0000  0.0000
 4256OM     OM1 4256   5.217   1.413   9.382  0.0000  0.0000  0.0000
 4257OM     OM1 4257   5.231   1.284   0.013  0.0000  0.0000  0.0000
 4258OM     OM1 4258   5.411   1.256   9.428  0.0000  0.0000  0.0000
 4259OM     OM1 4259   8.352   6.324   0.588  0.0000  0.0000  0.0000
 4260OM     OM1 4260   8.102   6.237   0.639  0.0000  0.0000  0.0000
 4261OM     OM1 4261   8.153   6.485   0.590  0.0000  0.0000  0.0000
 4262OM     OM1 4262   2.016   2.826   0.216  0.0000  0.0000  0.0000
 4263OM     OM1 4263   2.118   2.916   0.427  0.0000  0.0000  0.0000
 4264OM     OM1 4264   2.082   3.071   0.194  0.0000  0.0000  0.0000
 4265OM     OM1 4265   2.268   2.901   0.205  0.0000  0.0000  0.0000
 4266OM     OM1 4266   3.596   3.664   0.477  0.0000  0.0000  0.0000
 4267OM     OM1 4267   3.677   3.490   0.660  0.0000  0.0000  0.0000
 4268OM     OM1 4268   3.772   3.489   0.411  0.0000  0.0000  0.0000
 4269OM     OM1 4269   3.530   3.404   0.465  0.0000  0.0000  0.0000
 4270OM     OM1 4270   5.021   8.096   1.255  0.0000  0.0000  0.0000
 4271OM     OM1 4271   5.189   8.138   1.056  0.0000  0.0000  0.0000
 4272OM     OM1 4272   6.446   6.120   0.611  0.0000  0.0000  0.0000
 4273OM     OM1 4273   6.597   6.328   0.590  0.0000  0.0000  0.0000
 4274OM     OM1 4274   6.396   6.304   0.429  0.0000  0.0000  0.0000
 4275OM     OM1 4275   6.597   6.144   0.398  0.0000  0.0000  0.0000
 4276OM     OM1 4276   8.439   2.131   0.678  0.0000  0.0000  0.0000
 4277OM     OM1 4277   8.648   2.246   0.767  0.0000  0.0000  0.0000
 4278OM     OM1 4278   0.153   3.413   8.408  0.0000  0.0000  0.0000
 4279OM     OM1 4279   0.045   3.211   8.546  0.0000  0.0000  0.0000
 4280OM     OM1 4280   9.585   3.459   8.593  0.0000  0.0000  0.0000
 4281OM     OM1 4281   9.520   3.339   8.361  0.0000  0.0000  0.0000
 4282OM     OM1 4282   4.172   5.476   0.126  0.0000  0.0000  0.0000
 4283OM     OM1 4283   4.411   5.426   0.019  0.0000  0.0000  0.0000
 4284OM     OM1 4284   0.773   6.495   8.926  0.0000  0.0000  0.0000
 4285OM     OM1 4285   0.574   6.512   9.108  0.0000  0.0000  0.0000
 4286OM     OM1 4286   0.559   6.435   8.815  0.0000  0.0000  0.0000
 4287OM     OM1 4287   6.431   5.971   0.824  0.0000  0.0000  0.0000
 4288OM     OM1 4288   6.220   6.104   0.723  0.0000  0.0000  0.0000
 4289OM     OM1 4289   6.324   5.899   0.593  0.0000  0.0000  0.0000
 4290OM     OM1 4290   3.653   0.335   8.657  0.0000  0.0000  0.0000
 4291OM     OM1 4291   3.891   0.283   8.767  0.0000  0.0000  0.0000
 4292OM     OM1 4292   3.853   0.338   8.504  0.0000  0.0000  0.0000
 4293OM     OM1 4293   3.781   0.110   8.610  0.0000  0.0000  0.0000
 4294OM     OM1 4294   8.061   1.542   0.096  0.0000  0.0000  0.0000
 4295OM     OM1 4295   8.350   1.683   9.559  0.0000  0.0000  0.0000
 4296OM     OM1 4296   8.037   1.774   0.204  0.0000  0.0000  0.0000
 4297OM     OM1 4297   8.898   3.567   8.469  0.0000  0.0000  0.0000
 4298OM     OM1 4298   8.669   3.664   8.384  0.0000  0.0000  0.0000
 4299OM     OM1 4299   4.142   8.323   9.478  0.0000  0.0000  0.0000
 4300OM     OM1 4300   3.978   8.320   9.270  0.0000  0.0000  0.0000
 4301OM     OM1 4301   4.171   8.146   9.299  0.0000  0.0000  0.0000
 4302OM     OM1 4302   6.657   1.479   8.624  0.0000  0.0000  0.0000
 4303OM     OM1 4303   6.425   1.572   8.650  0.0000  0.0000  0.0000
 4304OM     OM1 4304   6.724   1.524   8.379  0.0000  0.0000  0.0000
 4305OM     OM1 4305   1.494   3.763   8.939  0.0000  0.0000  0.0000
 4306OM     OM1 4306   1.556   3.533   9.049  0.0000  0.0000  0.0000
 4307OM     OM1 4307   1.618   3.592   8.791  0.0000  0.0000  0.0000
 4308OM     OM1 4308   1.379   3.538   8.856  0.0000  0.0000  0.0000
 4309OM     OM1 4309   4.605   0.409   0.094  0.0000  0.0000  0.0000
 4310OM     OM1 4310   4.605   0.506   9.466  0.0000  0.0000  0.0000
 4311OM     OM1 4311   4.841   0.497   9.587  0.0000  0.0000  0.0000
 4312OM     OM1 4312   9.049   4.195   9.007  0.0000  0.0000  0.0000
 4313OM     OM1 4313   8.851   4.035   8.965  0.0000  0.0000  0.0000
 4314OM     OM1 4314   3.995   3.453   0.256  0.0000  0.0000  0.0000
 4315OM     OM1 4315   4.237   3.499   0.358  0.0000  0.0000  0.0000
 4316OM     OM1 4316   4.041   3.681   0.342  0.0000  0.0000  0.0000
 4317OM     OM1 4317   4.895   7.329   1.039  0.0000  0.0000  0.0000
 4318OM     OM1 4318   5.103   7.311   1.200  0.0000  0.0000  0.0000
 4319OM     OM1 4319   5.090   7.160   0.983  0.0000  0.0000  0.0000
 4320OM     OM1 4320   5.085   6.966   0.792  0.0000  0.0000  0.0000
 4321OM     OM1 4321   6.536   5.197   0.579  0.0000  0.0000  0.0000
 4322OM     OM1 4322   6.501   5.203   0.842  0.0000  0.0000  0.0000
 4323OM     OM1 4323   6.293   5.161   0.679  0.0000  0.0000  0.0000
 4324OM     OM1 4324   6.486   4.982   0.719  0.0000  0.0000  0.0000
 4325OM     OM1 4325   4.888   4.525   8.348  0.0000  0.0000  0.0000
 4326OM     OM1 4326   4.766   4.297   8.355  0.0000  0.0000  0.0000
 4327OM     OM1 4327   1.949   4.909   1.083  0.0000  0.0000  0.0000
 4328OM     OM1 4328   2.127   4.949   0.897  0.0000  0.0000  0.0000
 4329OM     OM1 4329   2.105   5.111   1.105  0.0000  0.0000  0.0000
 4330OM     OM1 4330   2.209   4.866   1.129  0.0000  0.0000  0.0000
 4331OM     OM1 4331   5.537   7.257   8.914  0.0000  0.0000  0.0000
 4332OM     OM1 4332   5.743   7.402   9.062  0.0000  0.0000  0.0000
 4333OM     OM1 4333   5.769   7.163   8.989  0.0000  0.0000  0.0000
 4334OM     OM1 4334   5.752   7.363   8.819  0.0000  0.0000  0.0000
 4335OM     OM1 4335   1.209   5.850   0.321  0.0000  0.0000  0.0000
 4336OM     OM1 4336   1.090   5.728   0.525  0.0000  0.0000  0.0000
 4337OM     OM1 4337   1.128   5.595   0.312  0.0000  0.0000  0.0000
 4338OM     OM1 4338   0.837   8.458   8.304  0.0000  0.0000  0.0000
 4339OM     OM1 4339   1.039   8.470   8.476  0.0000  0.0000  0.0000
 4340OM     OM1 4340   1.032   8.280   8.281  0.0000  0.0000  0.0000
 4341OM     OM1 4341   4.687   0.471   0.570  0.0000  0.0000  0.0000
 4342OM     OM1 4342   4.762   0.241   0.663  0.0000  0.0000  0.0000
 4343OM     OM1 4343   4.505   0.320   0.660  0.0000  0.0000  0.0000
 4344OM     OM1 4344   4.676   0.426   0.829  0.0000  0.0000  0.0000
 4345OM     OM1 4345   3.644   2.893   0.083  0.0000  0.0000  0.0000
 4346OM     OM1 4346   3.426   2.793   9.595  0.0000  0.0000  0.0000
 4347OM     OM1 4347   3.566   2.962   9.452  0.0000  0.0000  0.0000
 4348OM     OM1 4348   3.419   3.043   0.044  0.0000  0.0000  0.0000
 4349OM     OM1 4349   7.643   7.670   8.474  0.0000  0.0000  0.0000
 4350OM     OM1 4350   7.541   7.445   8.533  0.0000  0.0000  0.0000
 4351OM     OM1 4351   7.505   7.637   8.693  0.0000  0.0000  0.0000
 4352OM     OM1 4352   7.749   7.524   8.670  0.0000  0.0000  0.0000
 4353OM     OM1 4353   2.747   5.623   8.654  0.0000  0.0000  0.0000
 4354OM     OM1 4354   2.557   5.487   8.811  0.0000  0.0000  0.0000
 4355OM     OM1 4355   2.699   5.369   8.633  0.0000  0.0000  0.0000
 4356OM     OM1 4356   2.808   5.464   8.855  0.0000  0.0000  0.0000
 4357OM     OM1 4357   2.222   8.444   9.333  0.0000  0.0000  0.0000
 4358OM     OM1 4358   2.189   8.416   9.067  0.0000  0.0000  0.0000
 4359OM     OM1 4359   1.987   8.398   9.225  0.0000  0.0000  0.0000
 4360OM     OM1 4360   2.171   8.211   9.222  0.0000  0.0000  0.0000
 4361OM     OM1 4361   8.657   0.697   1.039  0.0000  0.0000  0.0000
 4362OM     OM1 4362   8.501   0.893   0.963  0.0000  0.0000  0.0000
 4363OM     OM1 4363   8.432   0.756   1.171  0.0000  0.0000  0.0000
 4364OM     OM1 4364   8.434   0.632   0.942  0.0000  0.0000  0.0000
 4365OM     OM1 4365   5.494   0.882   0.985  0.0000  0.0000  0.0000
 4366OM     OM1 4366   5.281   0.709   0.989  0.0000  0.0000  0.0000
 4367OM     OM1 4367   5.447   0.707   1.184  0.0000  0.0000  0.0000
 4368OM     OM1 4368   5.518   0.611   0.964  0.0000  0.0000  0.0000
 4369OM     OM1 4369   9.069   4.928   9.186  0.0000  0.0000  0.0000
 4370OM     OM1 4370   9.203   5.129   9.269  0.0000  0.0000  0.0000
 4371OM     OM1 4371   9.195   5.074   9.017  0.0000  0.0000  0.0000
 4372OM     OM1 4372   9.055   0.198   9.220  0.0000  0.0000  0.0000
 4373OM     OM1 4373   9.163   0.455   9.203  0.0000  0.0000  0.0000
 4374OM     OM1 4374   3.551   3.354   0.848  0.0000  0.0000  0.0000
 4375OM     OM1 4375   6.179   9.123   9.019  0.0000  0.0000  0.0000
 4376OM     OM1 4376   5.927   9.097   9.024  0.0000  0.0000  0.0000
 4377OM     OM1 4377   0.363   4.220   1.070  0.0000  0.0000  0.0000
 4378OM     OM1 4378   0.319   4.396   1.250  0.0000  0.0000  0.0000
 4379OM     OM1 4379   0.537   4.417   1.098  0.0000  0.0000  0.0000
 4380OM     OM1 4380   3.769   7.239   9.267  0.0000  0.0000  0.0000
 4381OM     OM1 4381   3.679   7.467   9.345  0.0000  0.0000  0.0000
 4382OM     OM1 4382   5.685   8.660   1.093  0.0000  0.0000  0.0000
 4383OM     OM1 4383   5.468   8.778   1.022  0.0000  0.0000  0.0000
 4384OM     OM1 4384   5.616   8.893   1.193  0.0000  0.0000  0.0000
 4385OM     OM1 4385   1.790   1.836   9.144  0.0000  0.0000  0.0000
 4386OM     OM1 4386   1.796   1.577   9.164  0.0000  0.0000  0.0000
 4387OM     OM1 4387   1.813   1.728   9.377  0.0000  0.0000  0.0000
 4388OM     OM1 4388   2.017   1.721   9.213  0.0000  0.0000  0.0000
 4389OM     OM1 4389   0.250   8.793   0.214  0.0000  0.0000  0.0000
 4390OM     OM1 4390   0.074   8.679   0.357  0.0000  0.0000  0.0000
 4391OM     OM1 4391   3.590   2.606   8.498  0.0000  0.0000  0.0000
 4392OM     OM1 4392   3.792   2.454   8.436  0.0000  0.0000  0.0000
 4393OM     OM1 4393   3.497   2.810   8.655  0.0000  0.0000  0.0000
 4394OM     OM1 4394   0.252   8.607   9.459  0.0000  0.0000  0.0000
 4395OM     OM1 4395   0.500   8.513   9.511  0.0000  0.0000  0.0000
 4396OM     OM1 4396   0.311   8.355   9.440  0.0000  0.0000  0.0000
 4397OM     OM1 4397   0.407   8.535   9.270  0.0000  0.0000  0.0000
 4398OM     OM1 4398   2.790   1.430   1.172  0.0000  0.0000  0.0000
 4399OM     OM1 4399   2.555   1.315   1.090  0.0000  0.0000  0.0000
 4400OM     OM1 4400   2.775   1.205   1.035  0.0000  0.0000  0.0000
 4401OM     OM1 4401   1.474   5.927   8.932  0.0000  0.0000  0.0000
 4402OM     OM1 4402   1.465   6.176   9.027  0.0000  0.0000  0.0000
 4403OM     OM1 4403   1.563   6.130   8.794  0.0000  0.0000  0.0000
 4404OM     OM1 4404   7.382   8.676   9.209  0.0000  0.0000  0.0000
 4405OM     OM1 4405   7.465   8.422   9.209  0.0000  0.0000  0.0000
 4406OM     OM1 4406   7.312   8.529   9.016  0.0000  0.0000  0.0000
 4407OM     OM1 4407   9.453   7.876   0.341  0.0000  0.0000  0.0000
 4408OM     OM1 4408   9.480   7.759   0.567  0.0000  0.0000  0.0000
 4409OM     OM1 4409   0.036   7.968   0.497  0.0000  0.0000  0.0000
 4410OM     OM1 4410   7.050   6.014   8.971  0.0000  0.0000  0.0000
 4411OM     OM1 4411   7.142   6.172   9.146  0.0000  0.0000  0.0000
 4412OM     OM1 4412   7.050   5.929   9.220  0.0000  0.0000  0.0000
 4413OM     OM1 4413   6.292   3.645   8.927  0.0000  0.0000  0.0000
 4414OM     OM1 4414   6.515   3.502   8.947  0.0000  0.0000  0.0000
 4415OM     OM1 4415   6.278   3.414   9.047  0.0000  0.0000  0.0000
 4416OM     OM1 4416   6.329   3.424   8.793  0.0000  0.0000  0.0000
 4417OM     OM1 4417   5.818   7.544   1.036  0.0000  0.0000  0.0000
 4418OM     OM1 4418   6.034   7.512   1.157  0.0000  0.0000  0.0000
 4419OM     OM1 4419   5.955   7.814   1.267  0.0000  0.0000  0.0000
 4420OM     OM1 4420   2.963   6.393   0.607  0.0000  0.0000  0.0000
 4421OM     OM1 4421   2.998   6.573   0.426  0.0000  0.0000  0.0000
 4422OM     OM1 4422   3.073   6.322   0.370  0.0000  0.0000  0.0000
 4423OM     OM1 4423   4.464   0.208   0.212  0.0000  0.0000  0.0000
 4424OM     OM1 4424   4.577   0.398   0.343  0.0000  0.0000  0.0000
 4425OM     OM1 4425   0.948   7.416   1.088  0.0000  0.0000  0.0000
 4426OM     OM1 4426   0.811   7.185   1.107  0.0000  0.0000  0.0000
 4427OM     OM1 4427   0.725   7.400   1.213  0.0000  0.0000  0.0000
 4428OM     OM1 4428   3.066   9.382   9.478  0.0000  0.0000  0.0000
 4429OM     OM1 4429   2.984   9.369   9.228  0.0000  0.0000  0.0000
 4430OM     OM1 4430   2.891   9.195   9.388  0.0000  0.0000  0.0000
 4431OM     OM1 4431   3.138   9.174   9.326  0.0000  0.0000  0.0000
 4432OM     OM1 4432   0.193   6.157   8.350  0.0000  0.0000  0.0000
 4433OM     OM1 4433   0.107   6.398   8.374  0.0000  0.0000  0.0000
 4434OM     OM1 4434   9.554   6.182   8.427  0.0000  0.0000  0.0000
 4435OM     OM1 4435   7.671   2.110   8.391  0.0000  0.0000  0.0000
 4436OM     OM1 4436   4.117   2.039   8.689  0.0000  0.0000  0.0000
 4437OM     OM1 4437   3.853   2.035   8.645  0.0000  0.0000  0.0000
 4438OM     OM1 4438   3.958   1.905   8.843  0.0000  0.0000  0.0000
 4439OM     OM1 4439   4.006   1.823   8.598  0.0000  0.0000  0.0000
 4440OM     OM1 4440   5.808   8.517   0.155  0.0000  0.0000  0.0000
 4441OM     OM1 4441   5.634   8.604   9.577  0.0000  0.0000  0.0000
 4442OM     OM1 4442   3.796   8.515   8.832  0.0000  0.0000  0.0000
 4443OM     OM1 4443   4.012   8.363   8.886  0.0000  0.0000  0.0000
 4444OM     OM1 4444   3.969   8.612   8.988  0.0000  0.0000  0.0000
 4445OM     OM1 4445   3.834   8.413   9.067  0.0000  0.0000  0.0000
 4446OM     OM1 4446   4.106   6.100   1.088  0.0000  0.0000  0.0000
 4447OM     OM1 4447   4.081   6.271   0.866  0.0000  0.0000  0.0000
 4448OM     OM1 4448   4.133   6.027   0.847  0.0000  0.0000  0.0000
 4449OM     OM1 4449   3.895   6.099   0.934  0.0000  0.0000  0.0000
 4450OM     OM1 4450   4.154   7.310   1.013  0.0000  0.0000  0.0000
 4451OM     OM1 4451   4.092   7.545   0.937  0.0000  0.0000  0.0000
 4452OM     OM1 4452   4.246   7.507   1.153  0.0000  0.0000  0.0000
 4453OM     OM1 4453   5.412   2.706   1.060  0.0000  0.0000  0.0000
 4454OM     OM1 4454   5.346   2.653   1.307  0.0000  0.0000  0.0000
 4455OM     OM1 4455   5.389   2.900   1.228  0.0000  0.0000  0.0000
 4456OM     OM1 4456   1.935   5.803   0.837  0.0000  0.0000  0.0000
 4457OM     OM1 4457   1.873   6.030   0.953  0.0000  0.0000  0.0000
 4458OM     OM1 4458   1.687   5.862   0.844  0.0000  0.0000  0.0000
 4459OM     OM1 4459   0.314   6.573   9.162  0.0000  0.0000  0.0000
 4460OM     OM1 4460   0.465   6.460   9.338  0.0000  0.0000  0.0000
 4461OM     OM1 4461   0.369   8.793   9.239  0.0000  0.0000  0.0000
 4462OM     OM1 4462   0.423   9.045   9.270  0.0000  0.0000  0.0000
 4463OM     OM1 4463   0.367   8.942   9.036  0.0000  0.0000  0.0000
 4464OM     OM1 4464   6.942   7.856   0.624  0.0000  0.0000  0.0000
 4465OM     OM1 4465   6.716   7.912   0.508  0.0000  0.0000  0.0000
 4466OM     OM1 4466   2.567   9.212   0.264  0.0000  0.0000  0.0000
 4467OM     OM1 4467   2.704   9.215   0.476  0.0000  0.0000  0.0000
 4468OM     OM1 4468   2.676   9.431   0.336  0.0000  0.0000  0.0000
 4469OM     OM1 4469   2.902   8.398   0.856  0.0000  0.0000  0.0000
 4470OM     OM1 4470   3.121   8.266   0.912  0.0000  0.0000  0.0000
 4471OM     OM1 4471   3.140   8.518   0.868  0.0000  0.0000  0.0000
 4472OM     OM1 4472   3.078   8.364   0.668  0.0000  0.0000  0.0000
 4473OM     OM1 4473   5.508   9.441   9.007  0.0000  0.0000  0.0000
 4474OM     OM1 4474   5.625   0.064   8.945  0.0000  0.0000  0.0000
 4475OM     OM1 4475   5.757   9.487   9.067  0.0000  0.0000  0.0000
 4476OM     OM1 4476   7.676   5.137   1.249  0.0000  0.0000  0.0000
 4477OM     OM1 4477   7.781   5.369   1.251  0.0000  0.0000  0.0000
 4478OM     OM1 4478   7.537   5.331   1.348  0.0000  0.0000  0.0000
 4479OM     OM1 4479   5.696   8.589   8.263  0.0000  0.0000  0.0000
 4480OM     OM1 4480   5.336   8.598   8.472  0.0000  0.0000  0.0000
 4481OM     OM1 4481   5.450   8.660   8.247  0.0000  0.0000  0.0000
 4482OM     OM1 4482   3.309   8.036   9.181  0.0000  0.0000  0.0000
 4483OM     OM1 4483   3.281   7.784   9.119  0.0000  0.0000  0.0000
 4484OM     OM1 4484   3.349   7.850   9.368  0.0000  0.0000  0.0000
 4485OM     OM1 4485   3.516   7.883   9.175  0.0000  0.0000  0.0000
 4486OM     OM1 4486   7.426   8.986   8.835  0.0000  0.0000  0.0000
 4487OM     OM1 4487   7.314   9.152   8.660  0.0000  0.0000  0.0000
 4488OM     OM1 4488   7.266   9.156   8.920  0.0000  0.0000  0.0000
 4489OM     OM1 4489   7.168   8.967   8.778  0.0000  0.0000  0.0000
 4490OM     OM1 4490   9.274   4.577   8.792  0.0000  0.0000  0.0000
 4491OM     OM1 4491   9.309   4.402   8.614  0.0000  0.0000  0.0000
 4492OM     OM1 4492   9.167   4.352   8.837  0.0000  0.0000  0.0000
 4493OM     OM1 4493   9.080   4.518   8.634  0.0000  0.0000  0.0000
 4494OM     OM1 4494   4.658   0.340   8.318  0.0000  0.0000  0.0000
 4495OM     OM1 4495   4.651   0.576   8.495  0.0000  0.0000  0.0000
 4496OM     OM1 4496   4.636   0.340   8.577  0.0000  0.0000  0.0000
 4497OM     OM1 4497   4.424   0.342   8.421  0.0000  0.0000  0.0000
 4498OM     OM1 4498   5.815   2.363   0.226  0.0000  0.0000  0.0000
 4499OM     OM1 4499   6.041   2.410   0.356  0.0000  0.0000  0.0000
 4500OM     OM1 4500   6.047   2.285   0.131  0.0000  0.0000  0.0000
 4501OM     OM1 4501   8.095   8.574   1.192  0.0000  0.0000  0.0000
 4502OM     OM1 4502   7.897   8.585   1.001  0.0000  0.0000  0.0000
 4503OM     OM1 4503   8.079   8.407   0.990  0.0000  0.0000  0.0000
 4504OM     OM1 4504   9.528   3.754   0.028  0.0000  0.0000  0.0000
 4505OM     OM1 4505   0.131   3.641   0.154  0.0000  0.0000  0.0000
 4506OM     OM1 4506   9.510   3.653   0.278  0.0000  0.0000  0.0000
 4507OM     OM1 4507   1.917   0.670   9.467  0.0000  0.0000  0.0000
 4508OM     OM1 4508   1.826   0.468   0.006  0.0000  0.0000  0.0000
 4509OM     OM1 4509   5.543   3.935   1.278  0.0000  0.0000  0.0000
 4510OM     OM1 4510   5.334   4.081   1.272  0.0000  0.0000  0.0000
 4511OM     OM1 4511   2.199   5.192   8.348  0.0000  0.0000  0.0000
 4512OM     OM1 4512   2.209   5.430   8.469  0.0000  0.0000  0.0000
 4513OM     OM1 4513   2.008   5.355   8.325  0.0000  0.0000  0.0000
 4514OM     OM1 4514   5.522   8.398   1.253  0.0000  0.0000  0.0000
 4515OM     OM1 4515   0.717   6.658   1.313  0.0000  0.0000  0.0000
 4516OM     OM1 4516   0.959   6.578   1.298  0.0000  0.0000  0.0000
 4517OM     OM1 4517   0.922   6.830   1.316  0.0000  0.0000  0.0000
 4518OM     OM1 4518   0.309   5.894   8.763  0.0000  0.0000  0.0000
 4519OM     OM1 4519   0.316   5.984   8.514  0.0000  0.0000  0.0000
 4520OM     OM1 4520   0.523   5.855   8.631  0.0000  0.0000  0.0000
 4521OM     OM1 4521   0.310   5.731   8.554  0.0000  0.0000  0.0000
 4522OM     OM1 4522   1.190   4.419   9.118  0.0000  0.0000  0.0000
 4523OM     OM1 4523   1.417   4.322   9.215  0.0000  0.0000  0.0000
 4524OM     OM1 4524   9.123   5.867   0.629  0.0000  0.0000  0.0000
 4525OM     OM1 4525   9.112   5.867   0.363  0.0000  0.0000  0.0000
 4526OM     OM1 4526   9.030   9.312   0.443  0.0000  0.0000  0.0000
 4527OM     OM1 4527   8.819   9.160   0.447  0.0000  0.0000  0.0000
 4528OM     OM1 4528   8.817   9.421   0.535  0.0000  0.0000  0.0000
 4529OM     OM1 4529   8.845   9.362   0.287  0.0000  0.0000  0.0000
 4530OM     OM1 4530   9.584   5.189   1.296  0.0000  0.0000  0.0000
 4531OM     OM1 4531   9.344   5.024   8.802  0.0000  0.0000  0.0000
 4532OM     OM1 4532   9.381   4.891   9.017  0.0000  0.0000  0.0000
 4533OM     OM1 4533   9.152   4.857   8.888  0.0000  0.0000  0.0000
 4534OM     OM1 4534   0.705   5.272   1.367  0.0000  0.0000  0.0000
 4535OM     OM1 4535   0.554   5.463   1.263  0.0000  0.0000  0.0000
 4536OM     OM1 4536   4.807   3.525   0.804  0.0000  0.0000  0.0000
 4537OM     OM1 4537   4.769   3.362   1.002  0.0000  0.0000  0.0000
 4538OM     OM1 4538   4.619   3.582   0.975  0.0000  0.0000  0.0000
 4539OM     OM1 4539   6.479   2.540   8.264  0.0000  0.0000  0.0000
 4540OM     OM1 4540   8.584   3.061   0.757  0.0000  0.0000  0.0000
 4541OM     OM1 4541   8.821   3.151   0.765  0.0000  0.0000  0.0000
 4542OM     OM1 4542   8.658   3.222   0.572  0.0000  0.0000  0.0000
 4543OM     OM1 4543   1.548   9.283   0.531  0.0000  0.0000  0.0000
 4544OM     OM1 4544   1.435   9.057   0.589  0.0000  0.0000  0.0000
 4545OM     OM1 4545   1.289   9.270   0.607  0.0000  0.0000  0.0000
 4546OM     OM1 4546   4.154   6.132   9.531  0.0000  0.0000  0.0000
 4547OM     OM1 4547   4.286   6.243   0.115  0.0000  0.0000  0.0000
 4548OM     OM1 4548   4.178   6.388   9.527  0.0000  0.0000  0.0000
 4549OM     OM1 4549   4.020   6.268   0.092  0.0000  0.0000  0.0000
 4550OM     OM1 4550   5.739   6.132   8.586  0.0000  0.0000  0.0000
 4551OM     OM1 4551   5.657   6.069   8.836  0.0000  0.0000  0.0000
 4552OM     OM1 4552   5.526   6.225   8.678  0.0000  0.0000  0.0000
 4553OM     OM1 4553   8.386   5.525   8.222  0.0000  0.0000  0.0000
 4554OM     OM1 4554   8.561   5.775   8.486  0.0000  0.0000  0.0000
 4555OM     OM1 4555   8.552   5.587   8.668  0.0000  0.0000  0.0000
 4556OM     OM1 4556   8.576   5.539   8.406  0.0000  0.0000  0.0000
 4557OM     OM1 4557   0.643   1.212   9.443  0.0000  0.0000  0.0000
 4558OM     OM1 4558   0.535   1.180   9.220  0.0000  0.0000  0.0000
 4559OM     OM1 4559   0.597   0.965   9.352  0.0000  0.0000  0.0000
 4560OM     OM1 4560   6.906   1.506   8.589  0.0000  0.0000  0.0000
 4561OM     OM1 4561   6.611   1.729   8.564  0.0000  0.0000  0.0000
 4562OM     OM1 4562   6.609   1.655   8.816  0.0000  0.0000  0.0000
 4563OM     OM1 4563   0.404   9.161   9.493  0.0000  0.0000  0.0000
 4564OM     OM1 4564   0.652   9.093   9.411  0.0000  0.0000  0.0000
 4565OM     OM1 4565   7.119   4.243   8.482  0.0000  0.0000  0.0000
 4566OM     OM1 4566   7.112   4.338   8.721  0.0000  0.0000  0.0000
 4567OM     OM1 4567   6.650   7.947   9.362  0.0000  0.0000  0.0000
 4568OM     OM1 4568   7.680   9.218   9.483  0.0000  0.0000  0.0000
 4569OM     OM1 4569   7.544   9.190   0.099  0.0000  0.0000  0.0000
 4570OM     OM1 4570   7.632   8.982   9.596  0.0000  0.0000  0.0000
 4571OM     OM1 4571   7.448   9.103   9.459  0.0000  0.0000  0.0000
 4572OM     OM1 4572   7.722   2.797   0.067  0.0000  0.0000  0.0000
 4573OM     OM1 4573   7.941   2.905   9.568  0.0000  0.0000  0.0000
 4574OM     OM1 4574   7.714   3.041   9.596  0.0000  0.0000  0.0000
 4575OM     OM1 4575   5.864   8.063   1.111  0.0000  0.0000  0.0000
 4576OM     OM1 4576   5.680   8.195   1.222  0.0000  0.0000  0.0000
 4577OM     OM1 4577   5.790   7.992   1.347  0.0000  0.0000  0.0000
 4578OM     OM1 4578   5.624   7.950   1.154  0.0000  0.0000  0.0000
 4579OM     OM1 4579   0.849   3.110   8.678  0.0000  0.0000  0.0000
 4580OM     OM1 4580   0.680   3.199   8.493  0.0000  0.0000  0.0000
 4581OM     OM1 4581   0.599   3.032   8.670  0.0000  0.0000  0.0000
 4582OM     OM1 4582   0.654   3.281   8.735  0.0000  0.0000  0.0000
 4583OM     OM1 4583   3.335   2.427   0.871  0.0000  0.0000  0.0000
 4584OM     OM1 4584   3.219   2.300   1.058  0.0000  0.0000  0.0000
 4585OM     OM1 4585   8.221   0.637   0.806  0.0000  0.0000  0.0000
 4586OM     OM1 4586   0.086   3.145   1.236  0.0000  0.0000  0.0000
 4587OM     OM1 4587   9.552   3.362   1.180  0.0000  0.0000  0.0000
 4588OM     OM1 4588   9.489   3.129   1.075  0.0000  0.0000  0.0000
 4589OM     OM1 4589   4.324   0.724   1.189  0.0000  0.0000  0.0000
 4590OM     OM1 4590   4.213   0.735   0.956  0.0000  0.0000  0.0000
 4591OM     OM1 4591   4.253   0.510   1.077  0.0000  0.0000  0.0000
 4592OM     OM1 4592   4.068   0.680   1.171  0.0000  0.0000  0.0000
 4593OM     OM1 4593   1.507   2.943   0.736  0.0000  0.0000  0.0000
 4594OM     OM1 4594   1.374   3.412   0.591  0.0000  0.0000  0.0000
 4595OM     OM1 4595   1.477   3.200   0.701  0.0000  0.0000  0.0000
 4596OM     OM1 4596   3.824   2.655   9.562  0.0000  0.0000  0.0000
 4597OM     OM1 4597   3.959   2.707   0.189  0.0000  0.0000  0.0000
 4598OM     OM1 4598   3.759   2.553   0.191  0.0000  0.0000  0.0000
 4599OM     OM1 4599   5.804   8.231   0.813  0.0000  0.0000  0.0000
 4600OM     OM1 4600   5.913   8.047   0.652  0.0000  0.0000  0.0000
 4601OM     OM1 4601   6.001   8.092   0.897  0.0000  0.0000  0.0000
 4602OM     OM1 4602   5.780   7.962   0.852  0.0000  0.0000  0.0000
 4603OM     OM1 4603   0.524   0.424   8.274  0.0000  0.0000  0.0000
 4604OM     OM1 4604   0.480   0.166   8.257  0.0000  0.0000  0.0000
 4605OM     OM1 4605   3.987   8.803   8.767  0.0000  0.0000  0.0000
 4606OM     OM1 4606   4.062   9.041   8.841  0.0000  0.0000  0.0000
 4607OM     OM1 4607   0.953   4.598   8.369  0.0000  0.0000  0.0000
 4608OM     OM1 4608   1.051   4.388   8.469  0.0000  0.0000  0.0000
 4609OM     OM1 4609   4.375   2.408   0.879  0.0000  0.0000  0.0000
 4610OM     OM1 4610   4.639   2.470   0.876  0.0000  0.0000  0.0000
 4611OM     OM1 4611   4.483   2.521   0.673  0.0000  0.0000  0.0000
 4612OM     OM1 4612   4.546   2.271   0.737  0.0000  0.0000  0.0000
 4613OM     OM1 4613   1.967   6.616   0.054  0.0000  0.0000  0.0000
 4614OM     OM1 4614   2.179   6.616   9.483  0.0000  0.0000  0.0000
 4615OM     OM1 4615   2.160   6.447   0.066  0.0000  0.0000  0.0000
 4616OM     OM1 4616   2.192   6.705   0.126  0.0000  0.0000  0.0000
 4617OM     OM1 4617   0.368   3.645   8.513  0.0000  0.0000  0.0000
 4618OM     OM1 4618   0.266   3.620   8.759  0.0000  0.0000  0.0000
 4619OM     OM1 4619   0.455   3.453   8.685  0.0000  0.0000  0.0000
 4620OM     OM1 4620   7.262   1.063   0.500  0.0000  0.0000  0.0000
 4621OM     OM1 4621   7.310   0.798   0.471  0.0000  0.0000  0.0000
 4622OM     OM1 4622   7.461   0.942   0.621  0.0000  0.0000  0.0000
 4623OM     OM1 4623   6.130   7.302   1.283  0.0000  0.0000  0.0000
 4624OM     OM1 4624   6.266   7.513   1.239  0.0000  0.0000  0.0000
 4625OM     OM1 4625   6.932   7.704   9.024  0.0000  0.0000  0.0000
 4626OM     OM1 4626   7.109   7.773   9.378  0.0000  0.0000  0.0000
 4627OM     OM1 4627   7.324   7.881   9.298  0.0000  0.0000  0.0000
 4628OM     OM1 4628   2.970   6.429   0.867  0.0000  0.0000  0.0000
 4629OM     OM1 4629   2.758   6.325   0.755  0.0000  0.0000  0.0000
 4630OM     OM1 4630   3.518   1.073   0.748  0.0000  0.0000  0.0000
 4631OM     OM1 4631   3.739   1.160   0.868  0.0000  0.0000  0.0000
 4632OM     OM1 4632   3.549   1.325   0.818  0.0000  0.0000  0.0000
 4633OM     OM1 4633   3.702   1.220   0.625  0.0000  0.0000  0.0000
 4634OM     OM1 4634   8.321   6.014   0.557  0.0000  0.0000  0.0000
 4635OM     OM1 4635   8.147   5.847   0.477  0.0000  0.0000  0.0000
 4636OM     OM1 4636   2.247   7.187   8.404  0.0000  0.0000  0.0000
 4637OM     OM1 4637   2.441   7.009   8.426  0.0000  0.0000  0.0000
 4638OM     OM1 4638   2.461   7.247   8.538  0.0000  0.0000  0.0000
 4639OM     OM1 4639   5.996   3.541   0.068  0.0000  0.0000  0.0000
 4640OM     OM1 4640   6.000   3.667   0.302  0.0000  0.0000  0.0000
 4641OM     OM1 4641   1.001   4.875   9.273  0.0000  0.0000  0.0000
 4642OM     OM1 4642   1.019   4.851   9.009  0.0000  0.0000  0.0000
 4643OM     OM1 4643   1.052   4.647   9.154  0.0000  0.0000  0.0000
 4644OM     OM1 4644   0.815   4.750   9.145  0.0000  0.0000  0.0000
 4645OM     OM1 4645   3.143   1.372   8.572  0.0000  0.0000  0.0000
 4646OM     OM1 4646   2.972   1.565   8.613  0.0000  0.0000  0.0000
 4647OM     OM1 4647   3.231   1.600   8.663  0.0000  0.0000  0.0000
 4648OM     OM1 4648   3.881   4.301   1.208  0.0000  0.0000  0.0000
 4649OM     OM1 4649   3.975   4.505   1.049  0.0000  0.0000  0.0000
 4650OM     OM1 4650   3.886   4.540   1.289  0.0000  0.0000  0.0000
 4651OM     OM1 4651   4.961   6.483   0.609  0.0000  0.0000  0.0000
 4652OM     OM1 4652   5.026   6.730   0.659  0.0000  0.0000  0.0000
 4653OM     OM1 4653   4.936   6.665   0.415  0.0000  0.0000  0.0000
 4654OM     OM1 4654   6.454   1.994   0.500  0.0000  0.0000  0.0000
 4655OM     OM1 4655   6.521   1.796   0.337  0.0000  0.0000  0.0000
 4656OM     OM1 4656   6.515   2.038   0.251  0.0000  0.0000  0.0000
 4657OM     OM1 4657   6.290   1.917   0.313  0.0000  0.0000  0.0000
 4658OM     OM1 4658   1.299   1.301   8.742  0.0000  0.0000  0.0000
 4659OM     OM1 4659   1.043   1.279   8.760  0.0000  0.0000  0.0000
 4660OM     OM1 4660   2.627   2.240   0.614  0.0000  0.0000  0.0000
 4661OM     OM1 4661   2.727   2.313   0.830  0.0000  0.0000  0.0000
 4662OM     OM1 4662   2.476   2.392   0.777  0.0000  0.0000  0.0000
 4663OM     OM1 4663   2.676   2.501   0.655  0.0000  0.0000  0.0000
 4664OM     OM1 4664   9.523   2.208   0.664  0.0000  0.0000  0.0000
 4665OM     OM1 4665   0.039   2.431   0.713  0.0000  0.0000  0.0000
 4666OM     OM1 4666   9.409   2.402   0.814  0.0000  0.0000  0.0000
 4667OM     OM1 4667   7.463   8.080   8.882  0.0000  0.0000  0.0000
 4668OM     OM1 4668   7.524   8.089   8.613  0.0000  0.0000  0.0000
 4669OM     OM1 4669   7.423   7.880   8.733  0.0000  0.0000  0.0000
 4670OM     OM1 4670   7.270   8.086   8.700  0.0000  0.0000  0.0000
 4671OM     OM1 4671   3.314   6.233   0.346  0.0000  0.0000  0.0000
 4672OM     OM1 4672   3.123   6.061   0.359  0.0000  0.0000  0.0000
 4673OM     OM1 4673   3.162   6.210   0.143  0.0000  0.0000  0.0000
 4674OM     OM1 4674   3.630   8.360   8.401  0.0000  0.0000  0.0000
 4675OM     OM1 4675   3.487   8.145   8.461  0.0000  0.0000  0.0000
 4676OM     OM1 4676   3.368   8.561   8.576  0.0000  0.0000  0.0000
 4677OM     OM1 4677   3.466   8.340   8.621  0.0000  0.0000  0.0000
 4678OM     OM1 4678   8.763   3.549   8.792  0.0000  0.0000  0.0000
 4679OM     OM1 4679   8.589   3.735   8.731  0.0000  0.0000  0.0000
 4680OM     OM1 4680   8.792   3.786   8.891  0.0000  0.0000  0.0000
 4681OM     OM1 4681   8.588   3.644   8.973  0.0000  0.0000  0.0000
 4682OM     OM1 4682   9.602   1.267   9.269  0.0000  0.0000  0.0000
 4683OM     OM1 4683   0.072   1.471   9.419  0.0000  0.0000  0.0000
 4684OM     OM1 4684   1.370   0.273   9.290  0.0000  0.0000  0.0000
 4685OM     OM1 4685   1.327   0.038   9.388  0.0000  0.0000  0.0000
 4686OM     OM1 4686   1.127   0.165   9.279  0.0000  0.0000  0.0000
 4687OM     OM1 4687   1.317   0.067   9.129  0.0000  0.0000  0.0000
 4688OM     OM1 4688   4.709   5.406   0.993  0.0000  0.0000  0.0000
 4689OM     OM1 4689   4.665   5.658   1.036  0.0000  0.0000  0.0000
 4690OM     OM1 4690   4.736   5.576   0.801  0.0000  0.0000  0.0000
 4691OM     OM1 4691   2.510   6.998   1.333  0.0000  0.0000  0.0000
 4692OM     OM1 4692   2.300   6.946   1.468  0.0000  0.0000  0.0000
 4693OM     OM1 4693   2.291   7.141   1.302  0.0000  0.0000  0.0000
 4694OM     OM1 4694   3.941   4.712   0.879  0.0000  0.0000  0.0000
 4695OM     OM1 4695   4.162   4.685   1.007  0.0000  0.0000  0.0000
 4696OM     OM1 4696   9.281   7.051   0.077  0.0000  0.0000  0.0000
 4697OM     OM1 4697   9.442   6.956   9.518  0.0000  0.0000  0.0000
 4698OM     OM1 4698   8.783   8.930   0.732  0.0000  0.0000  0.0000
 4699OM     OM1 4699   8.932   9.079   0.880  0.0000  0.0000  0.0000
 4700OM     OM1 4700   3.906   4.045   1.219  0.0000  0.0000  0.0000
 4701OM     OM1 4701   3.711   4.162   1.351  0.0000  0.0000  0.0000
 4702OM     OM1 4702   1.814   2.978   0.168  0.0000  0.0000  0.0000
 4703OM     OM1 4703   1.777   2.771   0.309  0.0000  0.0000  0.0000
 4704OM     OM1 4704   1.838   2.740   0.050  0.0000  0.0000  0.0000
 4705OM     OM1 4705   1.772   7.400   8.725  0.0000  0.0000  0.0000
 4706OM     OM1 4706   2.019   7.372   8.639  0.0000  0.0000  0.0000
 4707OM     OM1 4707   1.841   7.453   8.476  0.0000  0.0000  0.0000
 4708OM     OM1 4708   6.685   2.833   8.644  0.0000  0.0000  0.0000
 4709OM     OM1 4709   6.715   2.970   8.415  0.0000  0.0000  0.0000
 4710OM     OM1 4710   6.680   3.085   8.643  0.0000  0.0000  0.0000
 4711OM     OM1 4711   5.048   2.830   0.873  0.0000  0.0000  0.0000
 4712OM     OM1 4712   5.315   2.863   0.884  0.0000  0.0000  0.0000
 4713OM     OM1 4713   5.193   2.931   0.673  0.0000  0.0000  0.0000
 4714OM     OM1 4714   5.157   3.073   0.880  0.0000  0.0000  0.0000
 4715OM     OM1 4715   1.474   0.037   8.924  0.0000  0.0000  0.0000
 4716OM     OM1 4716   1.288   0.192   8.828  0.0000  0.0000  0.0000
 4717OM     OM1 4717   5.156   8.989   9.476  0.0000  0.0000  0.0000
 4718OM     OM1 4718   5.298   8.835   9.320  0.0000  0.0000  0.0000
 4719OM     OM1 4719   5.071   8.919   9.237  0.0000  0.0000  0.0000
 4720OM     OM1 4720   5.272   9.089   9.264  0.0000  0.0000  0.0000
 4721OM     OM1 4721   7.975   4.720   0.211  0.0000  0.0000  0.0000
 4722OM     OM1 4722   8.024   4.834   0.432  0.0000  0.0000  0.0000
 4723OM     OM1 4723   8.055   4.977   0.220  0.0000  0.0000  0.0000
 4724OM     OM1 4724   8.224   4.787   0.259  0.0000  0.0000  0.0000
 4725OM     OM1 4725   1.247   8.446   9.390  0.0000  0.0000  0.0000
 4726OM     OM1 4726   1.027   8.406   9.523  0.0000  0.0000  0.0000
 4727OM     OM1 4727   1.010   8.434   9.264  0.0000  0.0000  0.0000
 4728OM     OM1 4728   1.118   8.221   9.368  0.0000  0.0000  0.0000
 4729OM     OM1 4729   0.894   1.177   9.378  0.0000  0.0000  0.0000
 4730OM     OM1 4730   0.832   1.417   9.453  0.0000  0.0000  0.0000
 4731OM     OM1 4731   0.820   1.229   0.020  0.0000  0.0000  0.0000
 4732OM     OM1 4732   6.137   4.230   1.005  0.0000  0.0000  0.0000
 4733OM     OM1 4733   6.134   4.208   1.255  0.0000  0.0000  0.0000
 4734OM     OM1 4734   5.907   4.283   1.128  0.0000  0.0000  0.0000
 4735OM     OM1 4735   5.977   4.046   1.103  0.0000  0.0000  0.0000
 4736OM     OM1 4736   5.929   5.023   1.204  0.0000  0.0000  0.0000
 4737OM     OM1 4737   5.910   4.823   1.369  0.0000  0.0000  0.0000
 4738OM     OM1 4738   5.527   5.776   1.064  0.0000  0.0000  0.0000
 4739OM     OM1 4739   5.464   5.890   0.812  0.0000  0.0000  0.0000
 4740OM     OM1 4740   5.377   5.664   0.898  0.0000  0.0000  0.0000
 4741OM     OM1 4741   5.288   5.889   0.998  0.0000  0.0000  0.0000
 4742OM     OM1 4742   6.426   3.961   9.588  0.0000  0.0000  0.0000
 4743OM     OM1 4743   6.543   4.154   9.457  0.0000  0.0000  0.0000
 4744OM     OM1 4744   6.527   3.898   9.365  0.0000  0.0000  0.0000
 4745OM     OM1 4745   8.733   0.340   0.081  0.0000  0.0000  0.0000
 4746OM     OM1 4746   8.688   0.256   9.431  0.0000  0.0000  0.0000
 4747OM     OM1 4747   3.049   0.552   9.095  0.0000  0.0000  0.0000
 4748OM     OM1 4748   2.960   0.795   9.149  0.0000  0.0000  0.0000
 4749OM     OM1 4749   3.198   0.749   9.055  0.0000  0.0000  0.0000
 4750OM     OM1 4750   0.062   6.626   9.089  0.0000  0.0000  0.0000
 4751OM     OM1 4751   9.427   6.716   8.996  0.0000  0.0000  0.0000
 4752OM     OM1 4752   8.133   5.214   0.133  0.0000  0.0000  0.0000
 4753OM     OM1 4753   8.140   5.157   0.386  0.0000  0.0000  0.0000
 4754OM     OM1 4754   7.910   5.192   0.260  0.0000  0.0000  0.0000
 4755OM     OM1 4755   7.772   5.363   0.116  0.0000  0.0000  0.0000
 4756OM     OM1 4756   6.716   6.384   8.942  0.0000  0.0000  0.0000
 4757OM     OM1 4757   6.860   6.183   8.876  0.0000  0.0000  0.0000
 4758OM     OM1 4758   6.642   6.244   8.728  0.0000  0.0000  0.0000
 4759OM     OM1 4759   6.233   6.300   0.880  0.0000  0.0000  0.0000
 4760OM     OM1 4760   6.038   6.116   0.958  0.0000  0.0000  0.0000
 4761OM     OM1 4761   6.011   6.260   0.757  0.0000  0.0000  0.0000
 4762OM     OM1 4762   5.350   2.781   0.525  0.0000  0.0000  0.0000
 4763OM     OM1 4763   5.121   2.698   0.622  0.0000  0.0000  0.0000
 4764OM     OM1 4764   5.130   2.879   0.424  0.0000  0.0000  0.0000
 4765OM     OM1 4765   7.501   1.066   0.008  0.0000  0.0000  0.0000
 4766OM     OM1 4766   4.272   9.182   8.807  0.0000  0.0000  0.0000
 4767OM     OM1 4767   4.092   9.169   8.611  0.0000  0.0000  0.0000
 4768OM     OM1 4768   4.050   9.306   8.818  0.0000  0.0000  0.0000
 4769OM     OM1 4769   0.526   5.199   9.423  0.0000  0.0000  0.0000
 4770OM     OM1 4770   0.501   5.385   9.600  0.0000  0.0000  0.0000
 4771OM     OM1 4771   6.685   9.579   8.271  0.0000  0.0000  0.0000
 4772OM     OM1 4772   6.879   9.441   8.374  0.0000  0.0000  0.0000
 4773OM     OM1 4773   5.698   1.524   1.159  0.0000  0.0000  0.0000
 4774OM     OM1 4774   5.861   1.491   0.957  0.0000  0.0000  0.0000
 4775OM     OM1 4775   5.812   1.298   1.123  0.0000  0.0000  0.0000
 4776OM     OM1 4776   5.953   1.514   1.211  0.0000  0.0000  0.0000
 4777OM     OM1 4777   6.791   0.168   1.199  0.0000  0.0000  0.0000
 4778OM     OM1 4778   6.790   0.002   1.007  0.0000  0.0000  0.0000
 4779OM     OM1 4779   6.668   9.536   1.211  0.0000  0.0000  0.0000
 4780OM     OM1 4780   6.571   0.123   1.044  0.0000  0.0000  0.0000
 4781OM     OM1 4781   4.290   2.245   9.203  0.0000  0.0000  0.0000
 4782OM     OM1 4782   4.353   2.189   8.953  0.0000  0.0000  0.0000
 4783OM     OM1 4783   4.474   2.075   9.271  0.0000  0.0000  0.0000
 4784OM     OM1 4784   6.606   5.284   1.075  0.0000  0.0000  0.0000
 4785OM     OM1 4785   6.655   5.046   0.995  0.0000  0.0000  0.0000
 4786OM     OM1 4786   1.148   6.129   9.601  0.0000  0.0000  0.0000
 4787OM     OM1 4787   1.413   6.166   9.535  0.0000  0.0000  0.0000
 4788OM     OM1 4788   1.328   6.022   0.145  0.0000  0.0000  0.0000
 4789OM     OM1 4789   8.043   7.823   8.327  0.0000  0.0000  0.0000
 4790OM     OM1 4790   3.109   8.293   1.217  0.0000  0.0000  0.0000
 4791OM     OM1 4791   3.262   8.520   1.225  0.0000  0.0000  0.0000
 4792OM     OM1 4792   3.343   8.298   1.339  0.0000  0.0000  0.0000
 4793OM     OM1 4793   5.376   9.107   0.732  0.0000  0.0000  0.0000
 4794OM     OM1 4794   5.150   9.098   0.621  0.0000  0.0000  0.0000
 4795OM     OM1 4795   1.334   1.495   1.387  0.0000  0.0000  0.0000
 4796OM     OM1 4796   8.743   9.137   9.520  0.0000  0.0000  0.0000
 4797OM     OM1 4797   8.704   9.147   9.269  0.0000  0.0000  0.0000
 4798OM     OM1 4798   8.554   8.999   9.424  0.0000  0.0000  0.0000
 4799OM     OM1 4799   8.816   8.940   9.343  0.0000  0.0000  0.0000
 4800OM     OM1 4800   9.044   1.442   1.190  0.0000  0.0000  0.0000
 4801OM     OM1 4801   8.781   0.017   9.400  0.0000  0.0000  0.0000
 4802OM     OM1 4802   8.535   0.045   9.367  0.0000  0.0000  0.0000
 4803OM     OM1 4803   8.670   9.385   9.469  0.0000  0.0000  0.0000
 4804OM     OM1 4804   1.720   4.075   0.637  0.0000  0.0000  0.0000
 4805OM     OM1 4805   1.608   3.848   0.582  0.0000  0.0000  0.0000
 4806OM     OM1 4806   1.683   3.962   0.162  0.0000  0.0000  0.0000
 4807OM     OM1 4807   3.132   2.498   8.562  0.0000  0.0000  0.0000
 4808OM     OM1 4808   3.162   2.240   8.518  0.0000  0.0000  0.0000
 4809OM     OM1 4809   2.951   2.360   8.434  0.0000  0.0000  0.0000
 4810OM     OM1 4810   5.872   4.418   8.326  0.0000  0.0000  0.0000
 4811OM     OM1 4811   6.068   4.563   8.392  0.0000  0.0000  0.0000
 4812OM     OM1 4812   5.978   4.206   8.415  0.0000  0.0000  0.0000
 4813OM     OM1 4813   8.969   2.882   8.443  0.0000  0.0000  0.0000
 4814OM     OM1 4814   9.043   2.680   8.299  0.0000  0.0000  0.0000
 4815OM     OM1 4815   4.606   5.682   8.295  0.0000  0.0000  0.0000
 4816OM     OM1 4816   4.848   5.580   8.291  0.0000  0.0000  0.0000
 4817OM     OM1 4817   5.736   5.456   8.297  0.0000  0.0000  0.0000
 4818OM     OM1 4818   6.220   4.272   0.036  0.0000  0.0000  0.0000
 4819OM     OM1 4819   6.096   4.045   0.065  0.0000  0.0000  0.0000
 4820OM     OM1 4820   6.044   4.234   0.219  0.0000  0.0000  0.0000
 4821OM     OM1 4821   0.534   3.938   0.512  0.0000  0.0000  0.0000
 4822OM     OM1 4822   0.290   3.879   0.443  0.0000  0.0000  0.0000
 4823OM     OM1 4823   0.498   3.814   0.291  0.0000  0.0000  0.0000
 4824OM     OM1 4824   0.452   3.687   0.512  0.0000  0.0000  0.0000
 4825OM     OM1 4825   4.256   0.186   1.178  0.0000  0.0000  0.0000
 4826OM     OM1 4826   4.075   0.022   1.227  0.0000  0.0000  0.0000
 4827OM     OM1 4827   4.025   0.221   1.057  0.0000  0.0000  0.0000
 4828OM     OM1 4828   6.117   8.175   9.059  0.0000  0.0000  0.0000
 4829OM     OM1 4829   6.161   8.261   8.822  0.0000  0.0000  0.0000
 4830OM     OM1 4830   6.027   8.035   8.859  0.0000  0.0000  0.0000
 4831OM     OM1 4831   5.806   3.242   8.954  0.0000  0.0000  0.0000
 4832OM     OM1 4832   6.060   3.275   8.987  0.0000  0.0000  0.0000
 4833OM     OM1 4833   5.962   3.238   8.745  0.0000  0.0000  0.0000
 4834OM     OM1 4834   5.954   3.031   8.887  0.0000  0.0000  0.0000
 4835OM     OM1 4835   3.543   6.942   0.084  0.0000  0.0000  0.0000
 4836OM     OM1 4836   3.315   6.894   0.195  0.0000  0.0000  0.0000
 4837OM     OM1 4837   3.363   7.123   0.050  0.0000  0.0000  0.0000
 4838OM     OM1 4838   7.975   3.267   8.904  0.0000  0.0000  0.0000
 4839OM     OM1 4839   7.735   3.378   8.865  0.0000  0.0000  0.0000
 4840OM     OM1 4840   7.841   3.221   8.681  0.0000  0.0000  0.0000
 4841OM     OM1 4841   5.787   8.463   0.686  0.0000  0.0000  0.0000
 4842OM     OM1 4842   5.597   8.457   0.509  0.0000  0.0000  0.0000
 4843OM     OM1 4843   5.838   8.461   0.418  0.0000  0.0000  0.0000
 4844OM     OM1 4844   5.748   8.675   0.525  0.0000  0.0000  0.0000
 4845OM     OM1 4845   8.337   1.946   0.239  0.0000  0.0000  0.0000
 4846OM     OM1 4846   8.556   1.857   0.110  0.0000  0.0000  0.0000
 4847OM     OM1 4847   8.397   2.036   0.000  0.0000  0.0000  0.0000
 4848OM     OM1 4848   5.606   2.230   8.444  0.0000  0.0000  0.0000
 4849OM     OM1 4849   5.822   2.315   8.352  0.0000  0.0000  0.0000
 4850OM     OM1 4850   8.621   2.822   9.586  0.0000  0.0000  0.0000
 4851OM     OM1 4851   8.553   2.583   9.506  0.0000  0.0000  0.0000
 4852OM     OM1 4852   8.509   2.787   9.358  0.0000  0.0000  0.0000
 4853OM     OM1 4853   3.907   2.278   8.585  0.0000  0.0000  0.0000
 4854OM     OM1 4854   4.058   2.433   8.439  0.0000  0.0000  0.0000
 4855OM     OM1 4855   3.935   2.524   8.646  0.0000  0.0000  0.0000
 4856OM     OM1 4856   2.874   5.659   0.788  0.0000  0.0000  0.0000
 4857OM     OM1 4857   2.820   5.713   0.539  0.0000  0.0000  0.0000
 4858OM     OM1 4858   1.495   3.341   0.219  0.0000  0.0000  0.0000
 4859OM     OM1 4859   1.423   3.190   0.414  0.0000  0.0000  0.0000
 4860OM     OM1 4860   1.702   3.610   0.544  0.0000  0.0000  0.0000
 4861OM     OM1 4861   7.216   2.306   8.298  0.0000  0.0000  0.0000
 4862OM     OM1 4862   7.458   2.226   8.318  0.0000  0.0000  0.0000
 4863OM     OM1 4863   2.366   2.746   8.842  0.0000  0.0000  0.0000
 4864OM     OM1 4864   2.478   2.953   8.946  0.0000  0.0000  0.0000
 4865OM     OM1 4865   2.571   2.850   8.723  0.0000  0.0000  0.0000
 4866OM     OM1 4866   2.340   2.981   8.727  0.0000  0.0000  0.0000
 4867OM     OM1 4867   6.684   5.538   0.001  0.0000  0.0000  0.0000
 4868OM     OM1 4868   6.550   5.758   9.543  0.0000  0.0000  0.0000
 4869OM     OM1 4869   6.599   5.704   0.185  0.0000  0.0000  0.0000
 4870OM     OM1 4870   6.917   0.827   1.361  0.0000  0.0000  0.0000
 4871OM     OM1 4871   6.892   1.084   1.297  0.0000  0.0000  0.0000
 4872OM     OM1 4872   6.362   0.521   9.404  0.0000  0.0000  0.0000
 4873OM     OM1 4873   0.079   1.613   8.902  0.0000  0.0000  0.0000
 4874OM     OM1 4874   0.113   1.839   9.037  0.0000  0.0000  0.0000
 4875OM     OM1 4875   0.042   1.830   8.783  0.0000  0.0000  0.0000
 4876OM     OM1 4876   5.164   4.615   9.354  0.0000  0.0000  0.0000
 4877OM     OM1 4877   5.428   4.651   9.340  0.0000  0.0000  0.0000
 4878OM     OM1 4878   5.303   4.503   9.169  0.0000  0.0000  0.0000
 4879OM     OM1 4879   6.591   8.104   1.186  0.0000  0.0000  0.0000
 4880OM     OM1 4880   5.176   2.526   8.566  0.0000  0.0000  0.0000
 4881OM     OM1 4881   4.971   2.449   8.708  0.0000  0.0000  0.0000
 4882OM     OM1 4882   5.181   2.493   8.839  0.0000  0.0000  0.0000
 4883OM     OM1 4883   7.905   4.659   0.583  0.0000  0.0000  0.0000
 4884OM     OM1 4884   8.075   4.836   0.679  0.0000  0.0000  0.0000
 4885OM     OM1 4885   7.830   4.906   0.588  0.0000  0.0000  0.0000
 4886OM     OM1 4886   8.347   4.798   1.296  0.0000  0.0000  0.0000
 4887OM     OM1 4887   3.007   5.955   0.917  0.0000  0.0000  0.0000
 4888OM     OM1 4888   3.236   5.875   1.027  0.0000  0.0000  0.0000
 4889OM     OM1 4889   3.108   5.721   0.872  0.0000  0.0000  0.0000
 4890OM     OM1 4890   3.225   5.940   0.775  0.0000  0.0000  0.0000
 4891OM     OM1 4891   1.050   0.495   9.111  0.0000  0.0000  0.0000
 4892OM     OM1 4892   1.068   0.288   8.947  0.0000  0.0000  0.0000
 4893OM     OM1 4893   0.922   0.270   9.161  0.0000  0.0000  0.0000
 4894OM     OM1 4894   0.964   1.869   8.305  0.0000  0.0000  0.0000
 4895OM     OM1 4895   3.669   7.861   8.443  0.0000  0.0000  0.0000
 4896OM     OM1 4896   3.691   7.665   8.287  0.0000  0.0000  0.0000
 4897OM     OM1 4897   2.884   3.298   8.904  0.0000  0.0000  0.0000
 4898OM     OM1 4898   2.924   3.479   9.083  0.0000  0.0000  0.0000
 4899OM     OM1 4899   2.677   6.178   8.698  0.0000  0.0000  0.0000
 4900OM     OM1 4900   2.559   6.238   8.475  0.0000  0.0000  0.0000
 4901OM     OM1 4901   2.525   6.495   8.489  0.0000  0.0000  0.0000
 4902OM     OM1 4902   2.803   9.033   9.197  0.0000  0.0000  0.0000
 4903OM     OM1 4903   2.804   8.843   9.002  0.0000  0.0000  0.0000
 4904OM     OM1 4904   2.985   9.021   9.007  0.0000  0.0000  0.0000
 4905OM     OM1 4905   2.734   9.090   8.953  0.0000  0.0000  0.0000
 4906OM     OM1 4906   0.205   0.508   9.395  0.0000  0.0000  0.0000
 4907OM     OM1 4907   0.031   0.675   9.281  0.0000  0.0000  0.0000
 4908OM     OM1 4908   0.148   0.729   9.507  0.0000  0.0000  0.0000
 4909OM     OM1 4909   0.286   0.725   9.283  0.0000  0.0000  0.0000
 4910OM     OM1 4910   6.023   3.581   9.389  0.0000  0.0000  0.0000
 4911OM     OM1 4911   6.061   3.763   9.206  0.0000  0.0000  0.0000
 4912OM     OM1 4912   5.834   3.624   9.227  0.0000  0.0000  0.0000
 4913OM     OM1 4913   6.052   3.505   9.134  0.0000  0.0000  0.0000
 4914OM     OM1 4914   7.609   3.283   9.564  0.0000  0.0000  0.0000
 4915OM     OM1 4915   7.679   3.545   9.580  0.0000  0.0000  0.0000
 4916OM     OM1 4916   7.751   3.363   0.150  0.0000  0.0000  0.0000
 4917OM     OM1 4917   7.848   3.361   9.513  0.0000  0.0000  0.0000
 4918OM     OM1 4918   5.680   2.151   9.520  0.0000  0.0000  0.0000
 4919OM     OM1 4919   5.824   1.962   9.416  0.0000  0.0000  0.0000
 4920OM     OM1 4920   5.729   1.950   0.062  0.0000  0.0000  0.0000
 4921OM     OM1 4921   5.930   2.107   9.599  0.0000  0.0000  0.0000
 4922OM     OM1 4922   8.828   2.405   1.311  0.0000  0.0000  0.0000
 4923OM     OM1 4923   1.376   2.900   9.187  0.0000  0.0000  0.0000
 4924OM     OM1 4924   1.313   2.706   9.012  0.0000  0.0000  0.0000
 4925OM     OM1 4925   1.181   2.933   9.023  0.0000  0.0000  0.0000
 4926OM     OM1 4926   1.627   5.647   0.693  0.0000  0.0000  0.0000
 4927OM     OM1 4927   1.454   5.749   0.865  0.0000  0.0000  0.0000
 4928OM     OM1 4928   1.671   5.631   0.954  0.0000  0.0000  0.0000
 4929OM     OM1 4929   0.581   3.592   8.370  0.0000  0.0000  0.0000
 4930OM     OM1 4930   0.345   3.543   8.285  0.0000  0.0000  0.0000
 4931OM     OM1 4931   7.625   6.157   9.205  0.0000  0.0000  0.0000
 4932OM     OM1 4932   5.058   1.096   1.187  0.0000  0.0000  0.0000
 4933OM     OM1 4933   1.136   8.642   0.903  0.0000  0.0000  0.0000
 4934OM     OM1 4934   1.155   8.399   0.794  0.0000  0.0000  0.0000
 4935OM     OM1 4935   1.318   8.605   0.721  0.0000  0.0000  0.0000
 4936OM     OM1 4936   1.070   8.589   0.655  0.0000  0.0000  0.0000
 4937OM     OM1 4937   0.713   4.928   8.373  0.0000  0.0000  0.0000
 4938OM     OM1 4938   1.148   5.105   8.436  0.0000  0.0000  0.0000
 4939OM     OM1 4939   0.888   5.127   8.400  0.0000  0.0000  0.0000
 4940OM     OM1 4940   5.323   0.491   8.970  0.0000  0.0000  0.0000
 4941OM     OM1 4941   5.459   0.578   9.253  0.0000  0.0000  0.0000
 4942OM     OM1 4942   5.207   0.532   9.193  0.0000  0.0000  0.0000
 4943OM     OM1 4943   5.309   0.763   9.147  0.0000  0.0000  0.0000
 4944OM     OM1 4944   1.079   6.598   9.152  0.0000  0.0000  0.0000
 4945OM     OM1 4945   1.017   6.353   9.211  0.0000  0.0000  0.0000
 4946OM     OM1 4946   0.825   6.520   9.176  0.0000  0.0000  0.0000
 4947OM     OM1 4947   6.510   3.790   9.132  0.0000  0.0000  0.0000
 4948OM     OM1 4948   6.296   3.797   9.301  0.0000  0.0000  0.0000
 4949OM     OM1 4949   6.498   3.633   9.336  0.0000  0.0000  0.0000
 4950OM     OM1 4950   3.694   2.184   0.968  0.0000  0.0000  0.0000
 4951OM     OM1 4951   3.821   2.343   0.797  0.0000  0.0000  0.0000
 4952OM     OM1 4952   3.778   2.419   1.039  0.0000  0.0000  0.0000
 4953OM     OM1 4953   3.948   2.228   0.990  0.0000  0.0000  0.0000
 4954OM     OM1 4954   5.670   6.581   1.060  0.0000  0.0000  0.0000
 4955OM     OM1 4955   5.580   6.520   1.299  0.0000  0.0000  0.0000
 4956OM     OM1 4956   5.759   6.365   1.195  0.0000  0.0000  0.0000
 4957OM     OM1 4957   4.459   4.173   0.728  0.0000  0.0000  0.0000
 4958OM     OM1 4958   4.518   4.036   0.518  0.0000  0.0000  0.0000
 4959OM     OM1 4959   4.494   4.297   0.506  0.0000  0.0000  0.0000
 4960OM     OM1 4960   4.701   4.200   0.635  0.0000  0.0000  0.0000
 4961OM     OM1 4961   5.374   2.392   1.318  0.0000  0.0000  0.0000
 4962OM     OM1 4962   2.146   2.217   0.959  0.0000  0.0000  0.0000
 4963OM     OM1 4963   2.201   2.296   1.201  0.0000  0.0000  0.0000
 4964OM     OM1 4964   6.579   0.050   0.786  0.0000  0.0000  0.0000
 4965OM     OM1 4965   6.450   0.270   0.864  0.0000  0.0000  0.0000
 4966OM     OM1 4966   6.363   0.024   0.925  0.0000  0.0000  0.0000
 4967OM     OM1 4967   4.960   1.615   0.966  0.0000  0.0000  0.0000
 4968OM     OM1 4968   5.169   1.750   1.006  0.0000  0.0000  0.0000
 4969OM     OM1 4969   8.510   1.783   8.532  0.0000  0.0000  0.0000
 4970OM     OM1 4970   8.601   2.031   8.532  0.0000  0.0000  0.0000
 4971OM     OM1 4971   8.522   1.917   8.309  0.0000  0.0000  0.0000
 4972OM     OM1 4972   8.719   8.164   9.416  0.0000  0.0000  0.0000
 4973OM     OM1 4973   8.922   8.319   9.391  0.0000  0.0000  0.0000
 4974OM     OM1 4974   8.682   8.419   9.350  0.0000  0.0000  0.0000
 4975OM     OM1 4975   8.789   8.249   9.180  0.0000  0.0000  0.0000
 4976OM     OM1 4976   7.777   8.777   9.230  0.0000  0.0000  0.0000
 4977OM     OM1 4977   7.929   8.923   9.043  0.0000  0.0000  0.0000
 4978OM     OM1 4978   8.006   8.709   9.162  0.0000  0.0000  0.0000
 4979OM     OM1 4979   8.044   0.531   9.172  0.0000  0.0000  0.0000
 4980OM     OM1 4980   8.154   0.322   9.285  0.0000  0.0000  0.0000
 4981OM     OM1 4981   5.711   1.643   8.265  0.0000  0.0000  0.0000
 4982OM     OM1 4982   5.577   1.458   8.392  0.0000  0.0000  0.0000
 4983OM     OM1 4983   6.095   7.924   0.492  0.0000  0.0000  0.0000
 4984OM     OM1 4984   5.962   8.124   0.409  0.0000  0.0000  0.0000
 4985OM     OM1 4985   6.134   8.160   0.605  0.0000  0.0000  0.0000
 4986OM     OM1 4986   1.721   3.596   9.512  0.0000  0.0000  0.0000
 4987OM     OM1 4987   1.579   3.509   9.323  0.0000  0.0000  0.0000
 4988OM     OM1 4988   1.533   3.416   9.567  0.0000  0.0000  0.0000
 4989OM     OM1 4989   3.544   7.681   9.405  0.0000  0.0000  0.0000
 4990OM     OM1 4990   2.827   8.061   8.526  0.0000  0.0000  0.0000
 4991OM     OM1 4991   2.960   7.988   8.308  0.0000  0.0000  0.0000
 4992OM     OM1 4992   8.059   8.892   0.729  0.0000  0.0000  0.0000
 4993OM     OM1 4993   8.298   8.989   0.699  0.0000  0.0000  0.0000
 4994OM     OM1 4994   8.204   3.451   1.255  0.0000  0.0000  0.0000
 4995OM     OM1 4995   8.429   3.584   1.249  0.0000  0.0000  0.0000
 4996OM     OM1 4996   2.989   2.023   1.239  0.0000  0.0000  0.0000
 4997OM     OM1 4997   2.764   2.126   1.276  0.0000  0.0000  0.0000
 4998OM     OM1 4998   7.248   5.246   8.539  0.0000  0.0000  0.0000
 4999OM     OM1 4999   7.520   5.228   8.559  0.0000  0.0000  0.0000
 5000OM     OM1 5000   7.393   5.380   8.379  0.0000  0.0000  0.0000
 5001OM     OM1 5001   7.403   5.103   8.387  0.0000  0.0000  0.0000
 5002OM     OM1 5002   2.034   3.817   9.222  0.0000  0.0000  0.0000
 5003OM     OM1 5003   1.865   3.702   9.068  0.0000  0.0000  0.0000
 5004OM     OM1 5004   1.798   3.759   9.326  0.0000  0.0000  0.0000
 5005OM     OM1 5005   3.768   9.399   9.564  0.0000  0.0000  0.0000
 5006OM     OM1 5006   3.550   9.538   9.601  0.0000  0.0000  0.0000
 5007OM     OM1 5007   3.561   9.286   0.074  0.0000  0.0000  0.0000
 5008OM     OM1 5008   7.894   6.093   0.161  0.0000  0.0000  0.0000
 5009OM     OM1 5009   7.861   6.349   0.123  0.0000  0.0000  0.0000
 5010OM     OM1 5010   7.528   9.497   0.372  0.0000  0.0000  0.0000
 5011OM     OM1 5011   7.627   9.389   0.586  0.0000  0.0000  0.0000
 5012OM     OM1 5012   7.927   0.025   0.511  0.0000  0.0000  0.0000
 5013OM     OM1 5013   7.694   0.080   0.405  0.0000  0.0000  0.0000
 5014OM     OM1 5014   5.304   1.535   9.162  0.0000  0.0000  0.0000
 5015OM     OM1 5015   5.357   1.323   9.020  0.0000  0.0000  0.0000
 5016OM     OM1 5016   5.231   1.524   8.899  0.0000  0.0000  0.0000
 5017OM     OM1 5017   5.116   1.389   9.081  0.0000  0.0000  0.0000
 5018OM     OM1 5018   3.530   4.509   8.547  0.0000  0.0000  0.0000
 5019OM     OM1 5019   3.564   4.539   8.272  0.0000  0.0000  0.0000
 5020OM     OM1 5020   3.336   4.492   8.377  0.0000  0.0000  0.0000
 5021OM     OM1 5021   8.376   1.101   9.322  0.0000  0.0000  0.0000
 5022OM     OM1 5022   6.313   5.094   9.006  0.0000  0.0000  0.0000
 5023OM     OM1 5023   6.097   4.967   9.031  0.0000  0.0000  0.0000
 5024OM     OM1 5024   6.127   5.163   8.850  0.0000  0.0000  0.0000
 5025OM     OM1 5025   6.083   5.215   9.099  0.0000  0.0000  0.0000
 5026OM     OM1 5026   2.145   0.132   0.852  0.0000  0.0000  0.0000
 5027OM     OM1 5027   2.060   0.379   0.826  0.0000  0.0000  0.0000
 5028OM     OM1 5028   0.011   2.276   9.544  0.0000  0.0000  0.0000
 5029OM     OM1 5029   9.440   2.234   9.354  0.0000  0.0000  0.0000
 5030OM     OM1 5030   0.057   6.875   1.314  0.0000  0.0000  0.0000
 5031OM     OM1 5031   9.547   6.996   1.106  0.0000  0.0000  0.0000
 5032OM     OM1 5032   0.055   7.509   9.296  0.0000  0.0000  0.0000
 5033OM     OM1 5033   0.021   7.615   9.057  0.0000  0.0000  0.0000
 5034OM     OM1 5034   9.584   7.759   9.261  0.0000  0.0000  0.0000
 5035OM     OM1 5035   9.418   7.551   9.205  0.0000  0.0000  0.0000
 5036OM     OM1 5036   4.871   4.013   8.844  0.0000  0.0000  0.0000
 5037OM     OM1 5037   5.097   3.892   8.786  0.0000  0.0000  0.0000
 5038OM     OM1 5038   1.050   3.520   8.366  0.0000  0.0000  0.0000
 5039OM     OM1 5039   6.890   0.311   8.349  0.0000  0.0000  0.0000
 5040OM     OM1 5040   7.114   0.422   8.356  0.0000  0.0000  0.0000
 5041OM     OM1 5041   7.096   0.147   8.362  0.0000  0.0000  0.0000
 5042OM     OM1 5042   7.053   0.291   8.568  0.0000  0.0000  0.0000
 5043OM     OM1 5043   2.059   9.193   1.375  0.0000  0.0000  0.0000
 5044OM     OM1 5044   2.134   9.374   1.209  0.0000  0.0000  0.0000
 5045OM     OM1 5045   7.310   8.915   9.310  0.0000  0.0000  0.0000
 5046OM     OM1 5046   7.278   8.944   9.560  0.0000  0.0000  0.0000
 5047OM     OM1 5047   7.193   9.131   9.399  0.0000  0.0000  0.0000
 5048OM     OM1 5048   1.412   7.148   0.232  0.0000  0.0000  0.0000
 5049OM     OM1 5049   1.629   6.903   9.480  0.0000  0.0000  0.0000
 5050OM     OM1 5050   1.478   6.956   0.072  0.0000  0.0000  0.0000
 5051OM     OM1 5051   1.452   6.906   0.325  0.0000  0.0000  0.0000
 5052OM     OM1 5052   4.900   4.633   9.338  0.0000  0.0000  0.0000
 5053OM     OM1 5053   5.003   4.448   9.479  0.0000  0.0000  0.0000
 5054OM     OM1 5054   9.445   1.159   8.290  0.0000  0.0000  0.0000
 5055OM     OM1 5055   0.043   1.174   8.457  0.0000  0.0000  0.0000
 5056OM     OM1 5056   4.823   4.649   1.049  0.0000  0.0000  0.0000
 5057OM     OM1 5057   4.947   4.523   0.854  0.0000  0.0000  0.0000
 5058OM     OM1 5058   4.988   4.446   1.100  0.0000  0.0000  0.0000
 5059OM     OM1 5059   4.704   5.198   0.657  0.0000  0.0000  0.0000
 5060OM     OM1 5060   4.666   5.626   0.553  0.0000  0.0000  0.0000
 5061OM     OM1 5061   4.566   5.420   0.677  0.0000  0.0000  0.0000
 5062OM     OM1 5062   7.305   0.276   0.133  0.0000  0.0000  0.0000
 5063OM     OM1 5063   7.191   0.302   9.499  0.0000  0.0000  0.0000
 5064OM     OM1 5064   7.084   0.409   0.116  0.0000  0.0000  0.0000
 5065OM     OM1 5065   7.812   7.601   0.647  0.0000  0.0000  0.0000
 5066OM     OM1 5066   7.782   7.862   0.622  0.0000  0.0000  0.0000
 5067OM     OM1 5067   8.002   7.751   0.559  0.0000  0.0000  0.0000
 5068OM     OM1 5068   3.267   0.802   8.527  0.0000  0.0000  0.0000
 5069OM     OM1 5069   3.076   0.701   8.375  0.0000  0.0000  0.0000
 5070OM     OM1 5070   3.048   0.689   8.634  0.0000  0.0000  0.0000
 5071OM     OM1 5071   1.119   9.488   0.586  0.0000  0.0000  0.0000
 5072OM     OM1 5072   1.368   9.502   0.609  0.0000  0.0000  0.0000
 5073OM     OM1 5073   1.219   9.433   0.817  0.0000  0.0000  0.0000
 5074OM     OM1 5074   9.065   7.775   8.952  0.0000  0.0000  0.0000
 5075OM     OM1 5075   9.252   7.829   9.117  0.0000  0.0000  0.0000
 5076OM     OM1 5076   9.178   7.579   9.108  0.0000  0.0000  0.0000
 5077OM     OM1 5077   9.297   7.683   8.903  0.0000  0.0000  0.0000
 5078OM     OM1 5078   3.767   8.892   0.682  0.0000  0.0000  0.0000
 5079OM     OM1 5079   3.645   8.773   0.874  0.0000  0.0000  0.0000
 5080OM     OM1 5080   3.510   8.828   0.662  0.0000  0.0000  0.0000
 5081OM     OM1 5081   4.811   8.484   8.664  0.0000  0.0000  0.0000
 5082OM     OM1 5082   4.578   8.513   8.548  0.0000  0.0000  0.0000
 5083OM     OM1 5083   8.773   5.974   0.017  0.0000  0.0000  0.0000
 5084OM     OM1 5084   9.004   5.935   0.128  0.0000  0.0000  0.0000
 5085OM     OM1 5085   0.409   6.234   0.863  0.0000  0.0000  0.0000
 5086OM     OM1 5086   0.341   6.001   0.763  0.0000  0.0000  0.0000
 5087OM     OM1 5087   0.559   6.015   0.896  0.0000  0.0000  0.0000
 5088OM     OM1 5088   0.580   1.694   0.888  0.0000  0.0000  0.0000
 5089OM     OM1 5089   0.342   1.806   0.911  0.0000  0.0000  0.0000
 5090OM     OM1 5090   0.381   1.564   0.995  0.0000  0.0000  0.0000
 5091OM     OM1 5091   0.486   1.749   1.132  0.0000  0.0000  0.0000
 5092OM     OM1 5092   2.491   0.056   8.373  0.0000  0.0000  0.0000
 5093OM     OM1 5093   2.456   0.319   8.357  0.0000  0.0000  0.0000
 5094OM     OM1 5094   2.418   0.215   8.580  0.0000  0.0000  0.0000
 5095OM     OM1 5095   2.256   0.150   8.383  0.0000  0.0000  0.0000
 5096OM     OM1 5096   2.546   1.043   0.008  0.0000  0.0000  0.0000
 5097OM     OM1 5097   2.528   1.262   0.145  0.0000  0.0000  0.0000
 5098OM     OM1 5098   2.743   1.214   0.006  0.0000  0.0000  0.0000
 5099OM     OM1 5099   2.694   1.080   0.225  0.0000  0.0000  0.0000
 5100OM     OM1 5100   5.171   5.163   0.133  0.0000  0.0000  0.0000
 5101OM     OM1 5101   5.421   5.216   0.067  0.0000  0.0000  0.0000
 5102OM     OM1 5102   5.294   5.383   0.217  0.0000  0.0000  0.0000
 5103OM     OM1 5103   5.340   5.150   0.323  0.0000  0.0000  0.0000
 5104OM     OM1 5104   6.940   3.012   8.303  0.0000  0.0000  0.0000
 5105OM     OM1 5105   6.794   3.218   8.389  0.0000  0.0000  0.0000
 5106OM     OM1 5106   2.819   2.182   1.028  0.0000  0.0000  0.0000
 5107OM     OM1 5107   2.576   2.146   1.103  0.0000  0.0000  0.0000
 5108OM     OM1 5108   8.576   5.257   0.319  0.0000  0.0000  0.0000
 5109OM     OM1 5109   8.670   5.012   0.323  0.0000  0.0000  0.0000
 5110OM     OM1 5110   8.483   5.073   0.482  0.0000  0.0000  0.0000
 5111OM     OM1 5111   8.438   5.066   0.222  0.0000  0.0000  0.0000
 5112OM     OM1 5112   6.855   9.027   9.221  0.0000  0.0000  0.0000
 5113OM     OM1 5113   6.857   9.283   9.180  0.0000  0.0000  0.0000
 5114OM     OM1 5114   7.039   9.138   9.065  0.0000  0.0000  0.0000
 5115OM     OM1 5115   7.007   9.322   9.389  0.0000  0.0000  0.0000
 5116OM     OM1 5116   5.663   4.229   1.015  0.0000  0.0000  0.0000
 5117OM     OM1 5117   5.879   4.296   0.877  0.0000  0.0000  0.0000
 5118OM     OM1 5118   8.156   4.317   8.576  0.0000  0.0000  0.0000
 5119OM     OM1 5119   8.189   4.497   8.765  0.0000  0.0000  0.0000
 5120OM     OM1 5120   8.390   4.354   8.688  0.0000  0.0000  0.0000
 5121OM     OM1 5121   8.302   4.541   8.536  0.0000  0.0000  0.0000
 5122OM     OM1 5122   3.965   5.184   0.364  0.0000  0.0000  0.0000
 5123OM     OM1 5123   3.924   4.943   0.281  0.0000  0.0000  0.0000
 5124OM     OM1 5124   4.080   4.970   0.487  0.0000  0.0000  0.0000
 5125OM     OM1 5125   3.769   4.767   0.385  0.0000  0.0000  0.0000
 5126OM     OM1 5126   3.837   4.742   0.133  0.0000  0.0000  0.0000
 5127OM     OM1 5127   6.878   7.102   8.684  0.0000  0.0000  0.0000
 5128OM     OM1 5128   7.106   6.987   8.616  0.0000  0.0000  0.0000
 5129OM     OM1 5129   7.106   7.235   8.700  0.0000  0.0000  0.0000
 5130OM     OM1 5130   5.369   0.125   8.294  0.0000  0.0000  0.0000
 5131OM     OM1 5131   5.295   9.502   8.377  0.0000  0.0000  0.0000
 5132OM     OM1 5132   5.106   0.039   8.282  0.0000  0.0000  0.0000
 5133OM     OM1 5133   3.538   3.561   8.290  0.0000  0.0000  0.0000
 5134OM     OM1 5134   3.449   3.801   8.332  0.0000  0.0000  0.0000
 5135OM     OM1 5135   6.324   9.023   8.365  0.0000  0.0000  0.0000
 5136OM     OM1 5136   6.377   9.258   8.460  0.0000  0.0000  0.0000
 5137OM     OM1 5137   6.003   4.750   0.905  0.0000  0.0000  0.0000
 5138OM     OM1 5138   5.765   4.734   0.995  0.0000  0.0000  0.0000
 5139OM     OM1 5139   5.845   4.944   0.834  0.0000  0.0000  0.0000
 5140OM     OM1 5140   5.805   4.712   0.737  0.0000  0.0000  0.0000
 5141OM     OM1 5141   1.999   6.790   8.220  0.0000  0.0000  0.0000
 5142OM     OM1 5142   2.164   6.987   8.265  0.0000  0.0000  0.0000
 5143OM     OM1 5143   2.155   6.775   8.424  0.0000  0.0000  0.0000
 5144OM     OM1 5144   5.571   3.081   0.805  0.0000  0.0000  0.0000
 5145OM     OM1 5145   5.620   3.277   0.978  0.0000  0.0000  0.0000
 5146OM     OM1 5146   5.516   3.061   1.069  0.0000  0.0000  0.0000
 5147OM     OM1 5147   5.377   3.213   0.903  0.0000  0.0000  0.0000
 5148OM     OM1 5148   9.261   6.374   0.305  0.0000  0.0000  0.0000
 5149OM     OM1 5149   9.463   6.401   0.139  0.0000  0.0000  0.0000
 5150OM     OM1 5150   9.217   6.431   0.053  0.0000  0.0000  0.0000
 5151OM     OM1 5151   5.887   4.499   8.571  0.0000  0.0000  0.0000
 5152OM     OM1 5152   5.995   4.696   8.684  0.0000  0.0000  0.0000
 5153OM     OM1 5153   6.017   4.462   8.793  0.0000  0.0000  0.0000
 5154OM     OM1 5154   2.371   6.737   8.893  0.0000  0.0000  0.0000
 5155OM     OM1 5155   2.523   6.635   8.714  0.0000  0.0000  0.0000
 5156OM     OM1 5156   2.593   6.598   8.963  0.0000  0.0000  0.0000
 5157OM     OM1 5157   6.042   2.036   0.516  0.0000  0.0000  0.0000
 5158OM     OM1 5158   6.262   2.066   0.659  0.0000  0.0000  0.0000
 5159OM     OM1 5159   6.194   2.245   0.489  0.0000  0.0000  0.0000
 5160OM     OM1 5160   6.052   2.223   0.702  0.0000  0.0000  0.0000
 5161OM     OM1 5161   8.541   6.941   9.560  0.0000  0.0000  0.0000
 5162OM     OM1 5162   8.628   7.186   0.044  0.0000  0.0000  0.0000
 5163OM     OM1 5163   8.575   2.503   1.277  0.0000  0.0000  0.0000
 5164OM     OM1 5164   8.359   2.561   1.127  0.0000  0.0000  0.0000
 5165OM     OM1 5165   9.131   2.759   9.601  0.0000  0.0000  0.0000
 5166OM     OM1 5166   9.264   2.626   9.428  0.0000  0.0000  0.0000
 5167OM     OM1 5167   7.065   4.698   9.489  0.0000  0.0000  0.0000
 5168OM     OM1 5168   6.984   4.939   9.402  0.0000  0.0000  0.0000
 5169OM     OM1 5169   7.429   5.497   8.749  0.0000  0.0000  0.0000
 5170OM     OM1 5170   7.230   5.669   8.695  0.0000  0.0000  0.0000
 5171OM     OM1 5171   2.536   2.032   8.466  0.0000  0.0000  0.0000
 5172OM     OM1 5172   2.221   3.141   1.359  0.0000  0.0000  0.0000
 5173OM     OM1 5173   7.660   0.417   1.460  0.0000  0.0000  0.0000
 5174OM     OM1 5174   7.457   0.479   1.307  0.0000  0.0000  0.0000
 5175OM     OM1 5175   0.007   4.530   1.184  0.0000  0.0000  0.0000
 5176OM     OM1 5176   0.159   4.502   0.961  0.0000  0.0000  0.0000
 5177OM     OM1 5177   9.582   4.674   0.975  0.0000  0.0000  0.0000
 5178OM     OM1 5178   0.192   4.694   1.141  0.0000  0.0000  0.0000
 5179OM     OM1 5179   3.157   1.078   0.195  0.0000  0.0000  0.0000
 5180OM     OM1 5180   3.349   0.911   0.112  0.0000  0.0000  0.0000
 5181OM     OM1 5181   3.302   0.908   0.355  0.0000  0.0000  0.0000
 5182OM     OM1 5182   1.426   2.533   8.410  0.0000  0.0000  0.0000
 5183OM     OM1 5183   1.480   2.766   8.315  0.0000  0.0000  0.0000
 5184OM     OM1 5184   1.273   2.734   8.483  0.0000  0.0000  0.0000
 5185OM     OM1 5185   5.786   1.548   0.136  0.0000  0.0000  0.0000
 5186OM     OM1 5186   5.549   1.513   0.244  0.0000  0.0000  0.0000
 5187OM     OM1 5187   5.635   1.756   0.207  0.0000  0.0000  0.0000
 5188OM     OM1 5188   5.376   3.994   8.308  0.0000  0.0000  0.0000
 5189OM     OM1 5189   5.164   3.863   8.339  0.0000  0.0000  0.0000
 5190OM     OM1 5190   7.923   5.835   0.205  0.0000  0.0000  0.0000
 5191OM     OM1 5191   7.954   6.265   1.050  0.0000  0.0000  0.0000
 5192OM     OM1 5192   8.048   6.016   1.012  0.0000  0.0000  0.0000
 5193OM     OM1 5193   7.931   6.142   0.826  0.0000  0.0000  0.0000
 5194OM     OM1 5194   1.603   0.602   8.731  0.0000  0.0000  0.0000
 5195OM     OM1 5195   1.771   0.514   8.553  0.0000  0.0000  0.0000
 5196OM     OM1 5196   1.850   0.662   8.752  0.0000  0.0000  0.0000
 5197OM     OM1 5197   0.594   4.171   0.622  0.0000  0.0000  0.0000
 5198OM     OM1 5198   0.788   4.021   0.529  0.0000  0.0000  0.0000
 5199OM     OM1 5199   0.619   4.137   0.372  0.0000  0.0000  0.0000
 5200OM     OM1 5200   0.992   2.983   0.543  0.0000  0.0000  0.0000
 5201OM     OM1 5201   0.995   3.183   0.708  0.0000  0.0000  0.0000
 5202OM     OM1 5202   1.220   3.101   0.594  0.0000  0.0000  0.0000
 5203OM     OM1 5203   3.083   6.579   9.521  0.0000  0.0000  0.0000
 5204OM     OM1 5204   2.962   6.432   9.356  0.0000  0.0000  0.0000
 5205OM     OM1 5205   2.962   6.691   9.310  0.0000  0.0000  0.0000
 5206OM     OM1 5206   4.791   9.286   0.564  0.0000  0.0000  0.0000
 5207OM     OM1 5207   4.759   9.078   0.714  0.0000  0.0000  0.0000
 5208OM     OM1 5208   4.604   9.449   0.626  0.0000  0.0000  0.0000
 5209OM     OM1 5209   4.833   9.483   0.743  0.0000  0.0000  0.0000
 5210OM     OM1 5210   2.023   2.119   9.103  0.0000  0.0000  0.0000
 5211OM     OM1 5211   1.958   2.233   9.336  0.0000  0.0000  0.0000
 5212OM     OM1 5212   1.876   2.326   9.098  0.0000  0.0000  0.0000
 5213OM     OM1 5213   1.792   2.092   9.195  0.0000  0.0000  0.0000
 5214OM     OM1 5214   6.423   0.479   8.634  0.0000  0.0000  0.0000
 5215OM     OM1 5215   6.479   0.263   8.775  0.0000  0.0000  0.0000
 5216OM     OM1 5216   6.483   0.259   8.510  0.0000  0.0000  0.0000
 5217OM     OM1 5217   1.907   2.997   8.490  0.0000  0.0000  0.0000
 5218OM     OM1 5218   1.978   3.228   8.391  0.0000  0.0000  0.0000
 5219OM     OM1 5219   1.807   3.215   8.577  0.0000  0.0000  0.0000
 5220OM     OM1 5220   1.733   3.141   8.342  0.0000  0.0000  0.0000
 5221OM     OM1 5221   3.263   3.959   8.397  0.0000  0.0000  0.0000
 5222OM     OM1 5222   7.575   6.176   8.647  0.0000  0.0000  0.0000
 5223OM     OM1 5223   4.010   0.085   0.237  0.0000  0.0000  0.0000
 5224OM     OM1 5224   4.131   9.576   0.424  0.0000  0.0000  0.0000
 5225OM     OM1 5225   4.201   9.431   0.215  0.0000  0.0000  0.0000
 5226OM     OM1 5226   4.379   9.578   0.319  0.0000  0.0000  0.0000
 5227OM     OM1 5227   1.558   5.783   8.568  0.0000  0.0000  0.0000
 5228OM     OM1 5228   1.354   5.882   8.709  0.0000  0.0000  0.0000
 5229OM     OM1 5229   1.316   5.761   8.481  0.0000  0.0000  0.0000
 5230OM     OM1 5230   1.445   5.992   8.481  0.0000  0.0000  0.0000
 5231OM     OM1 5231   1.281   1.817   0.768  0.0000  0.0000  0.0000
 5232OM     OM1 5232   1.279   1.527   0.499  0.0000  0.0000  0.0000
 5233OM     OM1 5233   1.367   1.576   0.742  0.0000  0.0000  0.0000
 5234OM     OM1 5234   8.629   8.707   8.245  0.0000  0.0000  0.0000
 5235OM     OM1 5235   8.726   8.501   8.368  0.0000  0.0000  0.0000
 5236OM     OM1 5236   1.748   1.763   1.028  0.0000  0.0000  0.0000
 5237OM     OM1 5237   1.545   1.870   1.139  0.0000  0.0000  0.0000
 5238OM     OM1 5238   2.928   7.538   0.374  0.0000  0.0000  0.0000
 5239OM     OM1 5239   2.830   7.333   0.517  0.0000  0.0000  0.0000
 5240OM     OM1 5240   2.843   7.435   0.150  0.0000  0.0000  0.0000
 5241OM     OM1 5241   3.094   7.488   0.186  0.0000  0.0000  0.0000
 5242OM     OM1 5242   7.763   2.139   9.578  0.0000  0.0000  0.0000
 5243OM     OM1 5243   7.595   1.964   9.470  0.0000  0.0000  0.0000
 5244OM     OM1 5244   7.543   2.075   0.095  0.0000  0.0000  0.0000
 5245OM     OM1 5245   7.524   2.211   9.472  0.0000  0.0000  0.0000
 5246OM     OM1 5246   5.462   1.548   8.615  0.0000  0.0000  0.0000
 5247OM     OM1 5247   5.419   1.783   8.730  0.0000  0.0000  0.0000
 5248OM     OM1 5248   5.586   1.620   8.841  0.0000  0.0000  0.0000
 5249OM     OM1 5249   7.197   9.521   1.173  0.0000  0.0000  0.0000
 5250OM     OM1 5250   7.312   0.142   1.110  0.0000  0.0000  0.0000
 5251OM     OM1 5251   7.055   0.133   1.174  0.0000  0.0000  0.0000
 5252OM     OM1 5252   9.173   7.148   0.476  0.0000  0.0000  0.0000
 5253OM     OM1 5253   9.186   7.316   0.286  0.0000  0.0000  0.0000
 5254OM     OM1 5254   9.383   7.466   0.378  0.0000  0.0000  0.0000
 5255OM     OM1 5255   9.155   7.448   0.507  0.0000  0.0000  0.0000
 5256OM     OM1 5256   3.162   4.315   1.298  0.0000  0.0000  0.0000
 5257OM     OM1 5257   3.134   4.569   1.373  0.0000  0.0000  0.0000
 5258OM     OM1 5258   0.089   5.690   8.425  0.0000  0.0000  0.0000
 5259OM     OM1 5259   0.104   5.646   8.677  0.0000  0.0000  0.0000
 5260OM     OM1 5260   8.888   0.591   1.087  0.0000  0.0000  0.0000
 5261OM     OM1 5261   8.890   0.793   1.261  0.0000  0.0000  0.0000
 5262OM     OM1 5262   7.023   1.314   8.730  0.0000  0.0000  0.0000
 5263OM     OM1 5263   7.215   1.162   8.634  0.0000  0.0000  0.0000
 5264OM     OM1 5264   7.054   1.069   8.817  0.0000  0.0000  0.0000
 5265OM     OM1 5265   7.420   1.616   8.706  0.0000  0.0000  0.0000
 5266OM     OM1 5266   7.151   1.555   8.708  0.0000  0.0000  0.0000
 5267OM     OM1 5267   0.168   6.515   1.110  0.0000  0.0000  0.0000
 5268OM     OM1 5268   0.096   6.615   1.342  0.0000  0.0000  0.0000
 5269OM     OM1 5269   9.527   6.484   1.209  0.0000  0.0000  0.0000
 5270OM     OM1 5270   0.134   6.351   1.306  0.0000  0.0000  0.0000
 5271OM     OM1 5271   3.066   4.119   8.897  0.0000  0.0000  0.0000
 5272OM     OM1 5272   3.207   4.336   8.969  0.0000  0.0000  0.0000
 5273OM     OM1 5273   3.272   4.184   8.768  0.0000  0.0000  0.0000
 5274OM     OM1 5274   1.691   0.646   9.188  0.0000  0.0000  0.0000
 5275OM     OM1 5275   1.497   0.506   9.327  0.0000  0.0000  0.0000
 5276OM     OM1 5276   1.460   0.582   9.088  0.0000  0.0000  0.0000
 5277OM     OM1 5277   6.058   9.071   0.631  0.0000  0.0000  0.0000
 5278OM     OM1 5278   6.166   9.155   0.417  0.0000  0.0000  0.0000
 5279OM     OM1 5279   6.310   9.039   0.610  0.0000  0.0000  0.0000
 5280OM     OM1 5280   6.215   9.285   0.645  0.0000  0.0000  0.0000
 5281OM     OM1 5281   1.100   6.352   0.448  0.0000  0.0000  0.0000
 5282OM     OM1 5282   0.973   6.567   0.523  0.0000  0.0000  0.0000
 5283OM     OM1 5283   0.958   6.467   0.264  0.0000  0.0000  0.0000
 5284OM     OM1 5284   0.841   6.360   0.463  0.0000  0.0000  0.0000
 5285OM     OM1 5285   5.323   3.871   9.215  0.0000  0.0000  0.0000
 5286OM     OM1 5286   5.344   4.091   9.355  0.0000  0.0000  0.0000
 5287OM     OM1 5287   2.738   2.199   8.437  0.0000  0.0000  0.0000
 5288OM     OM1 5288   2.774   1.955   8.385  0.0000  0.0000  0.0000
 5289OM     OM1 5289   7.056   6.943   0.257  0.0000  0.0000  0.0000
 5290OM     OM1 5290   7.101   7.087   0.476  0.0000  0.0000  0.0000
 5291OM     OM1 5291   7.190   6.840   0.458  0.0000  0.0000  0.0000
 5292OM     OM1 5292   5.757   6.493   0.203  0.0000  0.0000  0.0000
 5293OM     OM1 5293   5.752   6.759   0.252  0.0000  0.0000  0.0000
 5294OM     OM1 5294   5.968   6.611   0.298  0.0000  0.0000  0.0000
 5295OM     OM1 5295   5.918   7.169   0.873  0.0000  0.0000  0.0000
 5296OM     OM1 5296   5.850   7.290   1.090  0.0000  0.0000  0.0000
 5297OM     OM1 5297   6.082   7.153   1.085  0.0000  0.0000  0.0000
 5298OM     OM1 5298   3.813   6.259   8.458  0.0000  0.0000  0.0000
 5299OM     OM1 5299   3.728   6.309   8.221  0.0000  0.0000  0.0000
 5300OM     OM1 5300   0.233   4.655   9.128  0.0000  0.0000  0.0000
 5301OM     OM1 5301   0.386   4.541   9.307  0.0000  0.0000  0.0000
 5302OM     OM1 5302   0.148   4.456   9.295  0.0000  0.0000  0.0000
 5303OM     OM1 5303   0.424   5.248   8.870  0.0000  0.0000  0.0000
 5304OM     OM1 5304   0.618   5.418   8.912  0.0000  0.0000  0.0000
 5305OM     OM1 5305   4.327   3.063   0.997  0.0000  0.0000  0.0000
 5306OM     OM1 5306   4.572   3.012   0.894  0.0000  0.0000  0.0000
 5307OM     OM1 5307   4.487   2.887   1.107  0.0000  0.0000  0.0000
 5308OM     OM1 5308   6.359   7.730   9.189  0.0000  0.0000  0.0000
 5309OM     OM1 5309   6.259   7.978   9.154  0.0000  0.0000  0.0000
 5310OM     OM1 5310   6.125   7.757   9.090  0.0000  0.0000  0.0000
 5311OM     OM1 5311   6.177   7.828   9.346  0.0000  0.0000  0.0000
 5312OM     OM1 5312   8.120   0.170   8.739  0.0000  0.0000  0.0000
 5313OM     OM1 5313   3.985   3.543   0.829  0.0000  0.0000  0.0000
 5314OM     OM1 5314   4.180   3.702   0.741  0.0000  0.0000  0.0000
 5315OM     OM1 5315   3.949   3.801   0.796  0.0000  0.0000  0.0000
 5316OM     OM1 5316   3.967   3.662   0.587  0.0000  0.0000  0.0000
 5317OM     OM1 5317   3.144   4.748   0.745  0.0000  0.0000  0.0000
 5318OM     OM1 5318   3.011   4.663   0.951  0.0000  0.0000  0.0000
 5319OM     OM1 5319   3.044   4.512   0.733  0.0000  0.0000  0.0000
 5320OM     OM1 5320   3.241   4.551   0.892  0.0000  0.0000  0.0000
 5321OM     OM1 5321   2.865   0.247   8.497  0.0000  0.0000  0.0000
 5322OM     OM1 5322   2.676   0.416   8.456  0.0000  0.0000  0.0000
 5323OM     OM1 5323   2.888   0.490   8.603  0.0000  0.0000  0.0000
 5324OM     OM1 5324   7.320   1.027   1.341  0.0000  0.0000  0.0000
 5325OM     OM1 5325   7.485   1.153   1.193  0.0000  0.0000  0.0000
 5326OM     OM1 5326   4.292   5.212   8.855  0.0000  0.0000  0.0000
 5327OM     OM1 5327   4.243   4.986   8.999  0.0000  0.0000  0.0000
 5328OM     OM1 5328   4.388   5.178   9.092  0.0000  0.0000  0.0000
 5329OM     OM1 5329   6.400   1.854   0.708  0.0000  0.0000  0.0000
 5330OM     OM1 5330   3.993   6.741   0.534  0.0000  0.0000  0.0000
 5331OM     OM1 5331   3.887   6.819   0.759  0.0000  0.0000  0.0000
 5332OM     OM1 5332   4.029   6.989   0.606  0.0000  0.0000  0.0000
 5333OM     OM1 5333   1.809   4.801   1.272  0.0000  0.0000  0.0000
 5334OM     OM1 5334   1.682   4.856   1.066  0.0000  0.0000  0.0000
 5335OM     OM1 5335   5.434   6.837   8.911  0.0000  0.0000  0.0000
 5336OM     OM1 5336   5.427   6.782   9.263  0.0000  0.0000  0.0000
 5337OM     OM1 5337   5.239   6.811   9.085  0.0000  0.0000  0.0000
 5338OM     OM1 5338   5.331   6.607   8.973  0.0000  0.0000  0.0000
 5339OM     OM1 5339   6.524   7.576   9.040  0.0000  0.0000  0.0000
 5340OM     OM1 5340   6.545   7.572   9.300  0.0000  0.0000  0.0000
 5341OM     OM1 5341   6.607   7.785   9.163  0.0000  0.0000  0.0000
 5342OM     OM1 5342   9.572   5.931   9.376  0.0000  0.0000  0.0000
 5343OM     OM1 5343   9.392   5.774   9.486  0.0000  0.0000  0.0000
 5344OM     OM1 5344   3.786   4.421   8.256  0.0000  0.0000  0.0000
 5345OM     OM1 5345   7.165   5.601   0.001  0.0000  0.0000  0.0000
 5346OM     OM1 5346   7.010   5.667   0.212  0.0000  0.0000  0.0000
 5347OM     OM1 5347   6.934   5.484   0.040  0.0000  0.0000  0.0000
 5348OM     OM1 5348   2.594   8.355   8.425  0.0000  0.0000  0.0000
 5349OM     OM1 5349   2.447   8.237   8.599  0.0000  0.0000  0.0000
 5350OM     OM1 5350   2.509   8.495   8.623  0.0000  0.0000  0.0000
 5351OM     OM1 5351   5.954   9.515   8.429  0.0000  0.0000  0.0000
 5352OM     OM1 5352   3.637   1.240   1.421  0.0000  0.0000  0.0000
 5353OM     OM1 5353   5.818   6.109   1.157  0.0000  0.0000  0.0000
 5354OM     OM1 5354   2.307   6.619   8.568  0.0000  0.0000  0.0000
 5355OM     OM1 5355   2.504   6.756   8.484  0.0000  0.0000  0.0000
 5356OM     OM1 5356   8.636   6.311   1.373  0.0000  0.0000  0.0000
 5357OM     OM1 5357   7.218   1.774   0.521  0.0000  0.0000  0.0000
 5358OM     OM1 5358   7.438   1.891   0.630  0.0000  0.0000  0.0000
 5359OM     OM1 5359   7.441   1.640   0.543  0.0000  0.0000  0.0000
 5360OM     OM1 5360   7.315   1.708   0.754  0.0000  0.0000  0.0000
 5361OM     OM1 5361   4.421   5.360   8.373  0.0000  0.0000  0.0000
 5362OM     OM1 5362   4.604   5.205   8.479  0.0000  0.0000  0.0000
 5363OM     OM1 5363   4.409   5.304   8.631  0.0000  0.0000  0.0000
 5364OM     OM1 5364   6.158   8.610   9.498  0.0000  0.0000  0.0000
 5365OM     OM1 5365   5.945   8.763   9.456  0.0000  0.0000  0.0000
 5366OM     OM1 5366   7.643   6.672   0.998  0.0000  0.0000  0.0000
 5367OM     OM1 5367   7.505   6.615   0.775  0.0000  0.0000  0.0000
 5368OM     OM1 5368   7.750   6.570   0.790  0.0000  0.0000  0.0000
 5369OM     OM1 5369   1.516   7.252   0.559  0.0000  0.0000  0.0000
 5370OM     OM1 5370   1.383   7.234   0.793  0.0000  0.0000  0.0000
 5371OM     OM1 5371   1.289   7.133   0.567  0.0000  0.0000  0.0000
 5372OM     OM1 5372   9.428   8.581   0.389  0.0000  0.0000  0.0000
 5373OM     OM1 5373   2.311   7.603   8.322  0.0000  0.0000  0.0000
 5374OM     OM1 5374   2.058   7.507   8.336  0.0000  0.0000  0.0000
 5375OM     OM1 5375   1.003   6.765   1.018  0.0000  0.0000  0.0000
 5376OM     OM1 5376   0.987   6.687   0.769  0.0000  0.0000  0.0000
 5377OM     OM1 5377   1.054   7.079   0.639  0.0000  0.0000  0.0000
 5378OM     OM1 5378   0.863   7.158   0.802  0.0000  0.0000  0.0000
 5379OM     OM1 5379   1.165   2.666   8.810  0.0000  0.0000  0.0000
 5380OM     OM1 5380   1.281   2.466   8.895  0.0000  0.0000  0.0000
 5381OM     OM1 5381   7.381   9.120   0.961  0.0000  0.0000  0.0000
 5382OM     OM1 5382   4.252   5.463   8.767  0.0000  0.0000  0.0000
 5383OM     OM1 5383   4.265   5.684   8.903  0.0000  0.0000  0.0000
 5384OM     OM1 5384   4.339   5.686   8.659  0.0000  0.0000  0.0000
 5385OM     OM1 5385   3.378   0.685   0.461  0.0000  0.0000  0.0000
 5386OM     OM1 5386   3.366   0.897   0.613  0.0000  0.0000  0.0000
 5387OM     OM1 5387   3.148   0.790   0.524  0.0000  0.0000  0.0000
 5388OM     OM1 5388   6.427   7.370   0.902  0.0000  0.0000  0.0000
 5389OM     OM1 5389   6.330   7.526   0.688  0.0000  0.0000  0.0000
 5390OM     OM1 5390   6.564   7.547   0.767  0.0000  0.0000  0.0000
 5391OM     OM1 5391   4.463   1.931   1.227  0.0000  0.0000  0.0000
 5392OM     OM1 5392   4.593   2.157   1.252  0.0000  0.0000  0.0000
 5393OM     OM1 5393   6.119   0.926   1.167  0.0000  0.0000  0.0000
 5394OM     OM1 5394   6.247   1.108   1.292  0.0000  0.0000  0.0000
 5395OM     OM1 5395   1.482   5.168   0.800  0.0000  0.0000  0.0000
 5396OM     OM1 5396   1.513   5.076   0.573  0.0000  0.0000  0.0000
 5397OM     OM1 5397   1.267   5.111   0.657  0.0000  0.0000  0.0000
 5398OM     OM1 5398   1.402   4.927   0.771  0.0000  0.0000  0.0000
 5399OM     OM1 5399   3.402   5.364   8.742  0.0000  0.0000  0.0000
 5400OM     OM1 5400   3.666   5.434   8.677  0.0000  0.0000  0.0000
 5401OM     OM1 5401   3.474   5.602   8.685  0.0000  0.0000  0.0000
 5402OM     OM1 5402   3.552   5.470   8.907  0.0000  0.0000  0.0000
 5403OM     OM1 5403   1.420   0.837   9.088  0.0000  0.0000  0.0000
 5404OM     OM1 5404   1.227   0.679   9.166  0.0000  0.0000  0.0000
 5405OM     OM1 5405   1.286   0.685   8.921  0.0000  0.0000  0.0000
 5406OM     OM1 5406   8.787   3.303   8.695  0.0000  0.0000  0.0000
 5407OM     OM1 5407   8.985   3.448   8.672  0.0000  0.0000  0.0000
 5408OM     OM1 5408   8.924   3.380   8.910  0.0000  0.0000  0.0000
 5409OM     OM1 5409   9.408   7.125   8.611  0.0000  0.0000  0.0000
 5410OM     OM1 5410   0.057   7.152   8.538  0.0000  0.0000  0.0000
 5411OM     OM1 5411   4.094   4.842   0.712  0.0000  0.0000  0.0000
 5412OM     OM1 5412   4.215   4.741   0.506  0.0000  0.0000  0.0000
 5413OM     OM1 5413   9.276   4.427   8.366  0.0000  0.0000  0.0000
 5414OM     OM1 5414   9.116   4.224   8.389  0.0000  0.0000  0.0000
 5415OM     OM1 5415   5.085   7.210   8.394  0.0000  0.0000  0.0000
 5416OM     OM1 5416   5.091   7.486   8.410  0.0000  0.0000  0.0000
 5417OM     OM1 5417   1.317   7.224   1.060  0.0000  0.0000  0.0000
 5418OM     OM1 5418   1.322   7.020   0.911  0.0000  0.0000  0.0000
 5419OM     OM1 5419   1.138   7.201   0.855  0.0000  0.0000  0.0000
 5420OM     OM1 5420   0.803   6.102   9.251  0.0000  0.0000  0.0000
 5421OM     OM1 5421   1.057   6.106   9.270  0.0000  0.0000  0.0000
 5422OM     OM1 5422   0.926   5.888   9.342  0.0000  0.0000  0.0000
 5423OM     OM1 5423   0.916   6.102   9.491  0.0000  0.0000  0.0000
 5424OM     OM1 5424   1.182   6.184   8.501  0.0000  0.0000  0.0000
 5425OM     OM1 5425   0.953   6.221   8.597  0.0000  0.0000  0.0000
 5426OM     OM1 5426   1.146   6.395   8.659  0.0000  0.0000  0.0000
 5427OM     OM1 5427   0.481   7.452   1.289  0.0000  0.0000  0.0000
 5428OM     OM1 5428   0.587   7.230   1.348  0.0000  0.0000  0.0000
 5429OM     OM1 5429   3.319   6.538   0.549  0.0000  0.0000  0.0000
 5430OM     OM1 5430   3.484   6.428   0.379  0.0000  0.0000  0.0000
 5431OM     OM1 5431   1.907   8.216   9.384  0.0000  0.0000  0.0000
 5432OM     OM1 5432   1.720   8.054   9.406  0.0000  0.0000  0.0000
 5433OM     OM1 5433   1.954   7.952   9.422  0.0000  0.0000  0.0000
 5434OM     OM1 5434   5.133   8.541   8.619  0.0000  0.0000  0.0000
 5435OM     OM1 5435   5.222   8.510   8.860  0.0000  0.0000  0.0000
 5436OM     OM1 5436   4.977   8.598   8.823  0.0000  0.0000  0.0000
 5437OM     OM1 5437   7.093   8.481   1.171  0.0000  0.0000  0.0000
 5438OM     OM1 5438   6.860   8.505   1.036  0.0000  0.0000  0.0000
 5439OM     OM1 5439   7.084   8.462   0.898  0.0000  0.0000  0.0000
 5440OM     OM1 5440   6.594   8.790   1.192  0.0000  0.0000  0.0000
 5441OM     OM1 5441   9.011   5.229   8.428  0.0000  0.0000  0.0000
 5442OM     OM1 5442   9.093   4.978   8.452  0.0000  0.0000  0.0000
 5443OM     OM1 5443   9.254   5.183   8.523  0.0000  0.0000  0.0000
 5444OM     OM1 5444   4.295   2.373   8.367  0.0000  0.0000  0.0000
 5445OM     OM1 5445   9.366   1.784   0.442  0.0000  0.0000  0.0000
 5446OM     OM1 5446   9.418   1.543   0.503  0.0000  0.0000  0.0000
 5447OM     OM1 5447   9.358   1.292   0.471  0.0000  0.0000  0.0000
 5448OM     OM1 5448   3.048   4.735   1.203  0.0000  0.0000  0.0000
 5449OM     OM1 5449   2.895   4.532   1.146  0.0000  0.0000  0.0000
 5450OM     OM1 5450   0.595   8.043   8.709  0.0000  0.0000  0.0000
 5451OM     OM1 5451   0.320   8.132   9.044  0.0000  0.0000  0.0000
 5452OM     OM1 5452   0.529   8.251   9.157  0.0000  0.0000  0.0000
 5453OM     OM1 5453   1.854   4.930   0.265  0.0000  0.0000  0.0000
 5454OM     OM1 5454   2.078   4.880   0.137  0.0000  0.0000  0.0000
 5455OM     OM1 5455   2.081   4.953   0.386  0.0000  0.0000  0.0000
 5456OM     OM1 5456   2.739   2.037   0.461  0.0000  0.0000  0.0000
 5457OM     OM1 5457   2.804   1.768   0.421  0.0000  0.0000  0.0000
 5458OM     OM1 5458   2.987   1.938   0.487  0.0000  0.0000  0.0000
 5459OM     OM1 5459   2.792   1.883   0.649  0.0000  0.0000  0.0000
 5460OM     OM1 5460   2.241   7.825   1.367  0.0000  0.0000  0.0000
 5461OM     OM1 5461   2.171   7.748   1.128  0.0000  0.0000  0.0000
 5462OM     OM1 5462   2.279   7.585   1.285  0.0000  0.0000  0.0000
 5463OM     OM1 5463   2.428   7.783   1.191  0.0000  0.0000  0.0000
 5464OM     OM1 5464   0.989   0.987   9.223  0.0000  0.0000  0.0000
 5465OM     OM1 5465   1.036   0.620   9.335  0.0000  0.0000  0.0000
 5466OM     OM1 5466   0.986   0.752   9.111  0.0000  0.0000  0.0000
 5467OM     OM1 5467   2.176   6.094   1.349  0.0000  0.0000  0.0000
 5468OM     OM1 5468   2.154   6.333   1.242  0.0000  0.0000  0.0000
 5469OM     OM1 5469   1.975   6.144   1.188  0.0000  0.0000  0.0000
 5470OM     OM1 5470   6.692   6.400   9.205  0.0000  0.0000  0.0000
 5471OM     OM1 5471   6.520   6.267   9.063  0.0000  0.0000  0.0000
 5472OM     OM1 5472   4.487   0.839   1.349  0.0000  0.0000  0.0000
 5473OM     OM1 5473   4.546   0.601   1.250  0.0000  0.0000  0.0000
 5474OM     OM1 5474   1.257   8.831   8.671  0.0000  0.0000  0.0000
 5475OM     OM1 5475   1.151   8.977   8.880  0.0000  0.0000  0.0000
 5476OM     OM1 5476   0.415   9.052   8.807  0.0000  0.0000  0.0000
 5477OM     OM1 5477   6.698   3.937   0.512  0.0000  0.0000  0.0000
 5478OM     OM1 5478   6.888   3.948   0.331  0.0000  0.0000  0.0000
 5479OM     OM1 5479   4.131   8.517   0.282  0.0000  0.0000  0.0000
 5480OM     OM1 5480   4.353   8.383   0.295  0.0000  0.0000  0.0000
 5481OM     OM1 5481   4.135   8.283   0.184  0.0000  0.0000  0.0000
 5482OM     OM1 5482   4.277   8.452   0.058  0.0000  0.0000  0.0000
 5483OM     OM1 5483   8.385   4.453   0.636  0.0000  0.0000  0.0000
 5484OM     OM1 5484   8.237   4.656   0.594  0.0000  0.0000  0.0000
 5485OM     OM1 5485   8.440   4.609   0.441  0.0000  0.0000  0.0000
 5486OM     OM1 5486   8.408   4.754   8.400  0.0000  0.0000  0.0000
 5487OM     OM1 5487   8.570   4.923   8.505  0.0000  0.0000  0.0000
 5488OM     OM1 5488   4.732   1.084   9.019  0.0000  0.0000  0.0000
 5489OM     OM1 5489   4.900   1.274   8.995  0.0000  0.0000  0.0000
 5490OM     OM1 5490   4.771   1.187   8.780  0.0000  0.0000  0.0000
 5491OM     OM1 5491   0.605   6.568   0.532  0.0000  0.0000  0.0000
 5492OM     OM1 5492   0.658   6.322   0.633  0.0000  0.0000  0.0000
 5493OM     OM1 5493   0.444   6.445   0.702  0.0000  0.0000  0.0000
 5494OM     OM1 5494   0.140   9.295   0.335  0.0000  0.0000  0.0000
 5495OM     OM1 5495   0.252   9.239   0.095  0.0000  0.0000  0.0000
 5496OM     OM1 5496   7.040   4.447   1.078  0.0000  0.0000  0.0000
 5497OM     OM1 5497   6.824   4.302   1.132  0.0000  0.0000  0.0000
 5498OM     OM1 5498   7.054   4.260   1.246  0.0000  0.0000  0.0000
 5499OM     OM1 5499   0.111   6.513   9.318  0.0000  0.0000  0.0000
 5500OM     OM1 5500   0.176   6.760   9.283  0.0000  0.0000  0.0000
 5501OM     OM1 5501   2.123   0.324   8.261  0.0000  0.0000  0.0000
 5502OM     OM1 5502   2.169   0.493   8.466  0.0000  0.0000  0.0000
 5503OM     OM1 5503   1.936   0.471   8.355  0.0000  0.0000  0.0000
 5504OM     OM1 5504   1.542   0.016   1.249  0.0000  0.0000  0.0000
 5505OM     OM1 5505   1.438   0.166   1.059  0.0000  0.0000  0.0000
 5506OM     OM1 5506   1.627   0.258   1.208  0.0000  0.0000  0.0000
 5507OM     OM1 5507   6.966   1.719   0.452  0.0000  0.0000  0.0000
 5508OM     OM1 5508   7.133   1.843   0.293  0.0000  0.0000  0.0000
 5509OM     OM1 5509   7.164   1.580   0.358  0.0000  0.0000  0.0000
 5510OM     OM1 5510   4.721   0.913   0.262  0.0000  0.0000  0.0000
 5511OM     OM1 5511   4.887   0.720   0.195  0.0000  0.0000  0.0000
 5512OM     OM1 5512   5.773   4.164   0.614  0.0000  0.0000  0.0000
 5513OM     OM1 5513   5.914   4.382   0.636  0.0000  0.0000  0.0000
 5514OM     OM1 5514   5.757   4.351   0.435  0.0000  0.0000  0.0000
 5515OM     OM1 5515   5.980   4.205   0.464  0.0000  0.0000  0.0000
 5516OM     OM1 5516   2.409   0.563   1.127  0.0000  0.0000  0.0000
 5517OM     OM1 5517   2.832   2.276   0.467  0.0000  0.0000  0.0000
 5518OM     OM1 5518   2.862   2.483   0.318  0.0000  0.0000  0.0000
 5519OM     OM1 5519   3.050   2.431   0.505  0.0000  0.0000  0.0000
 5520OM     OM1 5520   2.758   6.405   9.046  0.0000  0.0000  0.0000
 5521OM     OM1 5521   2.786   6.651   9.128  0.0000  0.0000  0.0000
 5522OM     OM1 5522   2.837   6.573   8.878  0.0000  0.0000  0.0000
 5523OM     OM1 5523   8.941   6.283   8.898  0.0000  0.0000  0.0000
 5524OM     OM1 5524   8.869   6.534   8.938  0.0000  0.0000  0.0000
 5525OM     OM1 5525   7.209   8.522   0.668  0.0000  0.0000  0.0000
 5526OM     OM1 5526   2.153   3.330   1.200  0.0000  0.0000  0.0000
 5527OM     OM1 5527   2.381   3.355   1.336  0.0000  0.0000  0.0000
 5528OM     OM1 5528   5.268   4.233   0.485  0.0000  0.0000  0.0000
 5529OM     OM1 5529   5.254   4.462   0.368  0.0000  0.0000  0.0000
 5530OM     OM1 5530   5.067   4.265   0.324  0.0000  0.0000  0.0000
 5531OM     OM1 5531   5.316   4.254   0.234  0.0000  0.0000  0.0000
 5532OM     OM1 5532   5.936   1.379   0.729  0.0000  0.0000  0.0000
 5533OM     OM1 5533   5.936   1.639   0.754  0.0000  0.0000  0.0000
 5534OM     OM1 5534   5.712   1.516   0.736  0.0000  0.0000  0.0000
 5535OM     OM1 5535   7.656   4.608   0.554  0.0000  0.0000  0.0000
 5536OM     OM1 5536   7.520   4.776   0.706  0.0000  0.0000  0.0000
 5537OM     OM1 5537   2.279   8.318   0.562  0.0000  0.0000  0.0000
 5538OM     OM1 5538   2.261   8.546   0.677  0.0000  0.0000  0.0000
 5539OM     OM1 5539   2.123   8.507   0.462  0.0000  0.0000  0.0000
 5540OM     OM1 5540   3.251   6.435   1.392  0.0000  0.0000  0.0000
 5541OM     OM1 5541   3.249   6.229   1.234  0.0000  0.0000  0.0000
 5542OM     OM1 5542   5.988   0.533   8.322  0.0000  0.0000  0.0000
 5543OM     OM1 5543   5.736   0.483   8.393  0.0000  0.0000  0.0000
 5544OM     OM1 5544   8.591   8.402   8.904  0.0000  0.0000  0.0000
 5545OM     OM1 5545   8.279   8.037   8.974  0.0000  0.0000  0.0000
 5546OM     OM1 5546   8.517   8.241   8.710  0.0000  0.0000  0.0000
 5547OM     OM1 5547   8.508   8.151   8.953  0.0000  0.0000  0.0000
 5548OM     OM1 5548   3.830   7.000   9.332  0.0000  0.0000  0.0000
 5549OM     OM1 5549   3.575   6.985   9.273  0.0000  0.0000  0.0000
 5550OM     OM1 5550   3.811   6.943   8.824  0.0000  0.0000  0.0000
 5551OM     OM1 5551   9.181   9.362   8.379  0.0000  0.0000  0.0000
 5552OM     OM1 5552   9.443   9.352   8.387  0.0000  0.0000  0.0000
 5553OM     OM1 5553   0.490   9.276   8.720  0.0000  0.0000  0.0000
 5554OM     OM1 5554   0.732   9.191   8.806  0.0000  0.0000  0.0000
 5555OM     OM1 5555   0.717   9.413   8.694  0.0000  0.0000  0.0000
 5556OM     OM1 5556   0.599   9.380   8.929  0.0000  0.0000  0.0000
 5557OM     OM1 5557   3.692   0.423   0.030  0.0000  0.0000  0.0000
 5558OM     OM1 5558   3.800   0.636   9.534  0.0000  0.0000  0.0000
 5559OM     OM1 5559   3.599   0.661   0.084  0.0000  0.0000  0.0000
 5560OM     OM1 5560   4.730   2.434   8.630  0.0000  0.0000  0.0000
 5561OM     OM1 5561   4.696   2.549   8.397  0.0000  0.0000  0.0000
 5562OM     OM1 5562   6.978   7.461   8.992  0.0000  0.0000  0.0000
 5563OM     OM1 5563   7.074   7.556   9.225  0.0000  0.0000  0.0000
 5564OM     OM1 5564   6.969   7.327   9.224  0.0000  0.0000  0.0000
 5565OM     OM1 5565   4.596   7.583   8.629  0.0000  0.0000  0.0000
 5566OM     OM1 5566   4.562   7.401   8.440  0.0000  0.0000  0.0000
 5567OM     OM1 5567   4.693   7.341   8.652  0.0000  0.0000  0.0000
 5568OM     OM1 5568   4.278   0.661   9.112  0.0000  0.0000  0.0000
 5569OM     OM1 5569   4.389   0.554   9.321  0.0000  0.0000  0.0000
 5570OM     OM1 5570   4.362   0.414   9.098  0.0000  0.0000  0.0000
 5571OM     OM1 5571   4.535   4.419   0.282  0.0000  0.0000  0.0000
 5572OM     OM1 5572   0.493   8.018   8.358  0.0000  0.0000  0.0000
 5573OM     OM1 5573   0.355   8.221   8.463  0.0000  0.0000  0.0000
 5574OM     OM1 5574   9.090   0.866   8.952  0.0000  0.0000  0.0000
 5575OM     OM1 5575   9.161   0.622   8.845  0.0000  0.0000  0.0000
 5576OM     OM1 5576   9.200   0.683   9.090  0.0000  0.0000  0.0000
 5577OM     OM1 5577   8.562   6.942   8.654  0.0000  0.0000  0.0000
 5578OM     OM1 5578   8.622   6.947   8.396  0.0000  0.0000  0.0000
 5579OM     OM1 5579   1.433   0.401   1.296  0.0000  0.0000  0.0000
 5580OM     OM1 5580   1.906   0.597   1.235  0.0000  0.0000  0.0000
 5581OM     OM1 5581   1.677   0.494   1.316  0.0000  0.0000  0.0000
 5582OM     OM1 5582   1.418   5.878   1.087  0.0000  0.0000  0.0000
 5583OM     OM1 5583   1.210   5.773   0.968  0.0000  0.0000  0.0000
 5584OM     OM1 5584   1.324   5.974   0.857  0.0000  0.0000  0.0000
 5585OM     OM1 5585   2.369   5.296   8.787  0.0000  0.0000  0.0000
 5586OM     OM1 5586   2.559   5.270   8.963  0.0000  0.0000  0.0000
 5587OM     OM1 5587   2.475   4.427   9.343  0.0000  0.0000  0.0000
 5588OM     OM1 5588   2.466   4.199   9.234  0.0000  0.0000  0.0000
 5589OM     OM1 5589   2.517   4.183   9.478  0.0000  0.0000  0.0000
 5590OM     OM1 5590   2.695   4.295   9.334  0.0000  0.0000  0.0000
 5591OM     OM1 5591   4.381   1.148   8.830  0.0000  0.0000  0.0000
 5592OM     OM1 5592   4.346   1.155   8.579  0.0000  0.0000  0.0000
 5593OM     OM1 5593   4.573   1.069   8.664  0.0000  0.0000  0.0000
 5594OM     OM1 5594   0.630   4.633   0.404  0.0000  0.0000  0.0000
 5595OM     OM1 5595   0.607   4.812   0.598  0.0000  0.0000  0.0000
 5596OM     OM1 5596   0.846   4.715   0.533  0.0000  0.0000  0.0000
 5597OM     OM1 5597   0.683   4.575   0.664  0.0000  0.0000  0.0000
 5598OM     OM1 5598   3.712   0.335   9.120  0.0000  0.0000  0.0000
 5599OM     OM1 5599   3.941   0.392   8.999  0.0000  0.0000  0.0000
 5600OM     OM1 5600   0.846   4.076   8.962  0.0000  0.0000  0.0000
 5601OM     OM1 5601   0.579   4.082   8.970  0.0000  0.0000  0.0000
 5602OM     OM1 5602   8.754   5.826   8.738  0.0000  0.0000  0.0000
 5603OM     OM1 5603   8.880   6.039   8.825  0.0000  0.0000  0.0000
 5604OM     OM1 5604   8.659   6.066   8.699  0.0000  0.0000  0.0000
 5605OM     OM1 5605   2.141   9.279   9.197  0.0000  0.0000  0.0000
 5606OM     OM1 5606   1.963   9.343   8.999  0.0000  0.0000  0.0000
 5607OM     OM1 5607   1.960   9.463   9.220  0.0000  0.0000  0.0000
 5608OM     OM1 5608   2.161   9.500   9.059  0.0000  0.0000  0.0000
 5609OM     OM1 5609   4.701   8.336   0.810  0.0000  0.0000  0.0000
 5610OM     OM1 5610   4.533   8.469   0.969  0.0000  0.0000  0.0000
 5611OM     OM1 5611   4.646   8.234   1.056  0.0000  0.0000  0.0000
 5612OM     OM1 5612   7.237   0.156   9.299  0.0000  0.0000  0.0000
 5613OM     OM1 5613   7.435   0.293   9.438  0.0000  0.0000  0.0000
 5614OM     OM1 5614   7.272   0.400   9.263  0.0000  0.0000  0.0000
 5615OM     OM1 5615   4.385   0.304   8.861  0.0000  0.0000  0.0000
 5616OM     OM1 5616   4.558   0.482   8.952  0.0000  0.0000  0.0000
 5617OM     OM1 5617   4.533   0.224   9.055  0.0000  0.0000  0.0000
 5618OM     OM1 5618   7.994   6.883   8.755  0.0000  0.0000  0.0000
 5619OM     OM1 5619   8.044   6.980   9.000  0.0000  0.0000  0.0000
 5620OM     OM1 5620   8.098   7.110   8.776  0.0000  0.0000  0.0000
 5621OM     OM1 5621   7.855   7.090   8.862  0.0000  0.0000  0.0000
 5622OM     OM1 5622   7.866   7.018   9.489  0.0000  0.0000  0.0000
 5623OM     OM1 5623   7.835   7.219   9.316  0.0000  0.0000  0.0000
 5624OM     OM1 5624   8.050   7.199   9.461  0.0000  0.0000  0.0000
 5625OM     OM1 5625   8.005   7.036   9.262  0.0000  0.0000  0.0000
 5626OM     OM1 5626   8.601   5.088   9.178  0.0000  0.0000  0.0000
 5627OM     OM1 5627   6.599   1.878   1.198  0.0000  0.0000  0.0000
 5628OM     OM1 5628   6.788   1.797   1.026  0.0000  0.0000  0.0000
 5629OM     OM1 5629   3.784   2.851   9.397  0.0000  0.0000  0.0000
 5630OM     OM1 5630   3.544   3.060   1.107  0.0000  0.0000  0.0000
 5631OM     OM1 5631   0.205   2.590   9.209  0.0000  0.0000  0.0000
 5632OM     OM1 5632   0.302   2.225   8.896  0.0000  0.0000  0.0000
 5633OM     OM1 5633   0.217   2.345   9.106  0.0000  0.0000  0.0000
 5634OM     OM1 5634   0.340   2.411   9.336  0.0000  0.0000  0.0000
 5635OM     OM1 5635   7.426   0.900   8.767  0.0000  0.0000  0.0000
 5636OM     OM1 5636   7.379   0.998   8.530  0.0000  0.0000  0.0000
 5637OM     OM1 5637   7.451   0.750   8.571  0.0000  0.0000  0.0000
 5638OM     OM1 5638   7.206   0.834   8.628  0.0000  0.0000  0.0000
 5639OM     OM1 5639   5.274   2.897   0.219  0.0000  0.0000  0.0000
 5640OM     OM1 5640   5.246   3.105   0.400  0.0000  0.0000  0.0000
 5641OM     OM1 5641   5.058   3.045   0.231  0.0000  0.0000  0.0000
 5642OM     OM1 5642   7.664   7.235   0.658  0.0000  0.0000  0.0000
 5643OM     OM1 5643   7.847   7.099   0.799  0.0000  0.0000  0.0000
 5644OM     OM1 5644   7.672   7.237   0.923  0.0000  0.0000  0.0000
 5645OM     OM1 5645   7.843   7.367   0.776  0.0000  0.0000  0.0000
 5646OM     OM1 5646   1.781   9.112   8.654  0.0000  0.0000  0.0000
 5647OM     OM1 5647   1.807   9.078   8.916  0.0000  0.0000  0.0000
 5648OM     OM1 5648   1.775   9.311   8.814  0.0000  0.0000  0.0000
 5649OM     OM1 5649   3.910   4.199   9.261  0.0000  0.0000  0.0000
 5650OM     OM1 5650   3.770   4.415   9.264  0.0000  0.0000  0.0000
 5651OM     OM1 5651   3.842   4.296   9.492  0.0000  0.0000  0.0000
 5652OM     OM1 5652   4.028   4.412   9.356  0.0000  0.0000  0.0000
 5653OM     OM1 5653   8.988   9.119   9.314  0.0000  0.0000  0.0000
 5654OM     OM1 5654   9.132   9.311   9.240  0.0000  0.0000  0.0000
 5655OM     OM1 5655   9.311   9.128   9.203  0.0000  0.0000  0.0000
 5656OM     OM1 5656   2.137   1.056   9.341  0.0000  0.0000  0.0000
 5657OM     OM1 5657   2.034   1.188   9.130  0.0000  0.0000  0.0000
 5658OM     OM1 5658   2.194   1.305   9.295  0.0000  0.0000  0.0000
 5659OM     OM1 5659   2.288   1.099   9.146  0.0000  0.0000  0.0000
 5660OM     OM1 5660   1.109   5.369   1.025  0.0000  0.0000  0.0000
 5661OM     OM1 5661   1.612   6.026   9.469  0.0000  0.0000  0.0000
 5662OM     OM1 5662   1.647   6.260   9.394  0.0000  0.0000  0.0000
 5663OM     OM1 5663   1.457   6.149   9.282  0.0000  0.0000  0.0000
 5664OM     OM1 5664   0.311   6.674   8.667  0.0000  0.0000  0.0000
 5665OM     OM1 5665   0.311   6.423   8.761  0.0000  0.0000  0.0000
 5666OM     OM1 5666   0.311   6.468   8.505  0.0000  0.0000  0.0000
 5667OM     OM1 5667   2.275   7.811   0.506  0.0000  0.0000  0.0000
 5668OM     OM1 5668   2.254   8.068   0.493  0.0000  0.0000  0.0000
 5669OM     OM1 5669   2.176   7.950   0.703  0.0000  0.0000  0.0000
 5670OM     OM1 5670   4.243   0.163   8.657  0.0000  0.0000  0.0000
 5671OM     OM1 5671   4.240   0.028   8.432  0.0000  0.0000  0.0000
 5672OM     OM1 5672   4.021   0.082   8.549  0.0000  0.0000  0.0000
 5673OM     OM1 5673   4.176   0.273   8.428  0.0000  0.0000  0.0000
 5674OM     OM1 5674   0.154   2.726   9.413  0.0000  0.0000  0.0000
 5675OM     OM1 5675   9.512   2.713   9.475  0.0000  0.0000  0.0000
 5676OM     OM1 5676   0.070   2.865   0.010  0.0000  0.0000  0.0000
 5677OM     OM1 5677   0.083   2.604   0.031  0.0000  0.0000  0.0000
 5678OM     OM1 5678   1.991   1.011   0.209  0.0000  0.0000  0.0000
 5679OM     OM1 5679   2.082   0.966   9.575  0.0000  0.0000  0.0000
 5680OM     OM1 5680   2.058   1.212   0.058  0.0000  0.0000  0.0000
 5681OM     OM1 5681   1.854   0.249   0.149  0.0000  0.0000  0.0000
 5682OM     OM1 5682   1.972   0.031   0.222  0.0000  0.0000  0.0000
 5683OM     OM1 5683   2.037   5.565   9.533  0.0000  0.0000  0.0000
 5684OM     OM1 5684   2.166   5.346   9.475  0.0000  0.0000  0.0000
 5685OM     OM1 5685   2.243   5.498   0.072  0.0000  0.0000  0.0000
 5686OM     OM1 5686   7.330   1.241   0.661  0.0000  0.0000  0.0000
 5687OM     OM1 5687   7.579   1.156   0.663  0.0000  0.0000  0.0000
 5688OM     OM1 5688   7.469   1.283   0.875  0.0000  0.0000  0.0000
 5689OM     OM1 5689   2.786   6.872   9.264  0.0000  0.0000  0.0000
 5690OM     OM1 5690   2.962   6.829   9.074  0.0000  0.0000  0.0000
 5691OM     OM1 5691   1.526   5.300   0.425  0.0000  0.0000  0.0000
 5692OM     OM1 5692   1.414   5.091   0.347  0.0000  0.0000  0.0000
 5693OM     OM1 5693   1.683   5.086   0.386  0.0000  0.0000  0.0000
 5694OM     OM1 5694   4.047   8.974   1.063  0.0000  0.0000  0.0000
 5695OM     OM1 5695   4.128   8.766   0.917  0.0000  0.0000  0.0000
 5696OM     OM1 5696   1.250   2.272   9.588  0.0000  0.0000  0.0000
 5697OM     OM1 5697   1.370   2.455   0.128  0.0000  0.0000  0.0000
 5698OM     OM1 5698   1.423   2.201   0.149  0.0000  0.0000  0.0000
 5699OM     OM1 5699   1.189   2.291   0.239  0.0000  0.0000  0.0000
 5700OM     OM1 5700   3.166   4.986   0.840  0.0000  0.0000  0.0000
 5701OM     OM1 5701   2.954   4.916   0.710  0.0000  0.0000  0.0000
 5702OM     OM1 5702   3.179   4.942   0.571  0.0000  0.0000  0.0000
 5703OM     OM1 5703   6.385   0.553   8.875  0.0000  0.0000  0.0000
 5704OM     OM1 5704   6.532   0.705   8.722  0.0000  0.0000  0.0000
 5705OM     OM1 5705   6.274   0.695   8.690  0.0000  0.0000  0.0000
 5706OM     OM1 5706   5.431   0.363   0.926  0.0000  0.0000  0.0000
 5707OM     OM1 5707   5.717   0.615   0.658  0.0000  0.0000  0.0000
 5708OM     OM1 5708   5.664   0.437   0.846  0.0000  0.0000  0.0000
 5709OM     OM1 5709   1.695   5.722   1.199  0.0000  0.0000  0.0000
 5710OM     OM1 5710   1.841   5.522   1.127  0.0000  0.0000  0.0000
 5711OM     OM1 5711   3.778   3.740   8.867  0.0000  0.0000  0.0000
 5712OM     OM1 5712   3.723   3.758   9.120  0.0000  0.0000  0.0000
 5713OM     OM1 5713   7.721   5.377   8.566  0.0000  0.0000  0.0000
 5714OM     OM1 5714   7.768   5.599   8.426  0.0000  0.0000  0.0000
 5715OM     OM1 5715   1.916   7.987   8.431  0.0000  0.0000  0.0000
 5716OM     OM1 5716   1.782   8.201   8.485  0.0000  0.0000  0.0000
 5717OM     OM1 5717   2.022   8.205   8.370  0.0000  0.0000  0.0000
 5718OM     OM1 5718   2.195   6.262   0.238  0.0000  0.0000  0.0000
 5719OM     OM1 5719   2.234   6.477   0.381  0.0000  0.0000  0.0000
 5720OM     OM1 5720   2.169   6.247   0.493  0.0000  0.0000  0.0000
 5721OM     OM1 5721   2.402   6.274   0.390  0.0000  0.0000  0.0000
 5722OM     OM1 5722   1.755   8.687   0.449  0.0000  0.0000  0.0000
 5723OM     OM1 5723   1.860   8.920   0.494  0.0000  0.0000  0.0000
 5724OM     OM1 5724   2.010   8.731   0.389  0.0000  0.0000  0.0000
 5725OM     OM1 5725   7.877   6.685   1.098  0.0000  0.0000  0.0000
 5726OM     OM1 5726   8.025   6.479   1.181  0.0000  0.0000  0.0000
 5727OM     OM1 5727   7.774   6.497   1.246  0.0000  0.0000  0.0000
 5728OM     OM1 5728   0.963   2.262   8.728  0.0000  0.0000  0.0000
 5729OM     OM1 5729   0.917   2.180   8.978  0.0000  0.0000  0.0000
 5730OM     OM1 5730   0.763   2.354   8.874  0.0000  0.0000  0.0000
 5731OM     OM1 5731   9.504   6.371   9.270  0.0000  0.0000  0.0000
 5732OM     OM1 5732   9.517   6.269   9.025  0.0000  0.0000  0.0000
 5733OM     OM1 5733   3.040   6.983   0.683  0.0000  0.0000  0.0000
 5734OM     OM1 5734   3.176   7.179   0.789  0.0000  0.0000  0.0000
 5735OM     OM1 5735   5.419   2.090   8.325  0.0000  0.0000  0.0000
 5736OM     OM1 5736   5.385   1.828   8.270  0.0000  0.0000  0.0000
 5737OM     OM1 5737   0.648   8.639   8.320  0.0000  0.0000  0.0000
 5738OM     OM1 5738   2.336   4.619   0.549  0.0000  0.0000  0.0000
 5739OM     OM1 5739   2.171   4.470   0.694  0.0000  0.0000  0.0000
 5740OM     OM1 5740   2.341   4.358   0.529  0.0000  0.0000  0.0000
 5741OM     OM1 5741   2.136   4.500   0.437  0.0000  0.0000  0.0000
 5742OM     OM1 5742   4.966   2.477   0.619  0.0000  0.0000  0.0000
 5743OM     OM1 5743   4.866   2.410   0.391  0.0000  0.0000  0.0000
 5744OM     OM1 5744   5.241   2.481   0.627  0.0000  0.0000  0.0000
 5745OM     OM1 5745   5.575   1.625   0.000  0.0000  0.0000  0.0000
 5746OM     OM1 5746   5.420   1.570   9.396  0.0000  0.0000  0.0000
 5747OM     OM1 5747   4.542   5.798   8.527  0.0000  0.0000  0.0000
 5748OM     OM1 5748   4.511   5.827   8.781  0.0000  0.0000  0.0000
 5749OM     OM1 5749   8.570   3.069   0.042  0.0000  0.0000  0.0000
 5750OM     OM1 5750   8.478   3.115   9.409  0.0000  0.0000  0.0000
 5751OM     OM1 5751   6.739   3.460   8.512  0.0000  0.0000  0.0000
 5752OM     OM1 5752   6.958   3.411   8.369  0.0000  0.0000  0.0000
 5753OM     OM1 5753   8.135   8.049   0.296  0.0000  0.0000  0.0000
 5754OM     OM1 5754   8.075   8.252   0.137  0.0000  0.0000  0.0000
 5755OM     OM1 5755   7.890   8.084   0.183  0.0000  0.0000  0.0000
 5756OM     OM1 5756   9.069   3.319   9.586  0.0000  0.0000  0.0000
 5757OM     OM1 5757   9.101   3.484   9.385  0.0000  0.0000  0.0000
 5758OM     OM1 5758   9.099   3.562   0.027  0.0000  0.0000  0.0000
 5759OM     OM1 5759   6.649   7.903   8.508  0.0000  0.0000  0.0000
 5760OM     OM1 5760   6.879   7.803   8.521  0.0000  0.0000  0.0000
 5761OM     OM1 5761   5.129   0.673   8.560  0.0000  0.0000  0.0000
 5762OM     OM1 5762   5.210   0.557   8.340  0.0000  0.0000  0.0000
 5763OM     OM1 5763   4.952   0.648   8.365  0.0000  0.0000  0.0000
 5764OM     OM1 5764   5.038   0.556   8.758  0.0000  0.0000  0.0000
 5765OM     OM1 5765   6.769   7.572   0.905  0.0000  0.0000  0.0000
 5766OM     OM1 5766   6.994   7.461   0.850  0.0000  0.0000  0.0000
 5767OM     OM1 5767   8.163   3.033   9.517  0.0000  0.0000  0.0000
 5768OM     OM1 5768   8.019   3.100   9.318  0.0000  0.0000  0.0000
 5769OM     OM1 5769   8.098   3.292   9.472  0.0000  0.0000  0.0000
 5770OM     OM1 5770   8.263   3.167   9.306  0.0000  0.0000  0.0000
 5771OM     OM1 5771   2.936   9.473   8.978  0.0000  0.0000  0.0000
 5772OM     OM1 5772   2.432   7.500   8.518  0.0000  0.0000  0.0000
 5773OM     OM1 5773   2.285   7.373   8.687  0.0000  0.0000  0.0000
 5774OM     OM1 5774   8.156   4.714   8.416  0.0000  0.0000  0.0000
 5775OM     OM1 5775   8.135   4.973   8.428  0.0000  0.0000  0.0000
 5776OM     OM1 5776   7.921   4.815   8.418  0.0000  0.0000  0.0000
 5777OM     OM1 5777   8.104   0.512   0.289  0.0000  0.0000  0.0000
 5778OM     OM1 5778   8.021   0.633   0.064  0.0000  0.0000  0.0000
 5779OM     OM1 5779   8.243   0.487   0.070  0.0000  0.0000  0.0000
 5780OM     OM1 5780   0.213   2.564   0.251  0.0000  0.0000  0.0000
 5781OM     OM1 5781   0.041   2.387   0.169  0.0000  0.0000  0.0000
 5782OM     OM1 5782   9.562   2.626   0.253  0.0000  0.0000  0.0000
 5783OM     OM1 5783   3.565   8.108   0.093  0.0000  0.0000  0.0000
 5784OM     OM1 5784   3.719   8.068   0.296  0.0000  0.0000  0.0000
 5785OM     OM1 5785   3.608   8.304   0.265  0.0000  0.0000  0.0000
 5786OM     OM1 5786   6.262   8.137   8.618  0.0000  0.0000  0.0000
 5787OM     OM1 5787   4.352   3.229   0.740  0.0000  0.0000  0.0000
 5788OM     OM1 5788   4.595   3.280   0.649  0.0000  0.0000  0.0000
 5789OM     OM1 5789   4.387   3.418   0.570  0.0000  0.0000  0.0000
 5790OM     OM1 5790   4.477   3.451   0.814  0.0000  0.0000  0.0000
 5791OM     OM1 5791   4.008   5.668   0.763  0.0000  0.0000  0.0000
 5792OM     OM1 5792   3.920   5.845   0.935  0.0000  0.0000  0.0000
 5793OM     OM1 5793   3.710   5.937   0.826  0.0000  0.0000  0.0000
 5794OM     OM1 5794   7.012   2.643   0.993  0.0000  0.0000  0.0000
 5795OM     OM1 5795   6.887   2.566   0.619  0.0000  0.0000  0.0000
 5796OM     OM1 5796   7.083   2.714   0.528  0.0000  0.0000  0.0000
 5797OM     OM1 5797   6.982   2.757   0.767  0.0000  0.0000  0.0000
 5798OM     OM1 5798   0.312   5.027   8.779  0.0000  0.0000  0.0000
 5799OM     OM1 5799   0.245   4.800   8.899  0.0000  0.0000  0.0000
 5800OM     OM1 5800   0.300   4.799   8.644  0.0000  0.0000  0.0000
 5801OM     OM1 5801   0.490   4.842   8.818  0.0000  0.0000  0.0000
 5802OM     OM1 5802   8.480   0.980   0.535  0.0000  0.0000  0.0000
 5803OM     OM1 5803   7.324   0.800   9.171  0.0000  0.0000  0.0000
 5804OM     OM1 5804   7.219   0.938   8.980  0.0000  0.0000  0.0000
 5805OM     OM1 5805   7.485   0.919   9.009  0.0000  0.0000  0.0000
 5806OM     OM1 5806   4.753   3.131   0.485  0.0000  0.0000  0.0000
 5807OM     OM1 5807   4.686   2.875   0.446  0.0000  0.0000  0.0000
 5808OM     OM1 5808   4.563   3.079   0.332  0.0000  0.0000  0.0000
 5809OM     OM1 5809   4.806   3.009   0.254  0.0000  0.0000  0.0000
 5810OM     OM1 5810   9.348   8.595   8.642  0.0000  0.0000  0.0000
 5811OM     OM1 5811   9.584   8.483   8.638  0.0000  0.0000  0.0000
 5812OM     OM1 5812   4.040   4.140   0.493  0.0000  0.0000  0.0000
 5813OM     OM1 5813   3.925   4.055   0.719  0.0000  0.0000  0.0000
 5814OM     OM1 5814   3.802   4.220   0.560  0.0000  0.0000  0.0000
 5815OM     OM1 5815   7.056   8.006   8.573  0.0000  0.0000  0.0000
 5816OM     OM1 5816   7.094   8.271   8.640  0.0000  0.0000  0.0000
 5817OM     OM1 5817   7.024   8.103   8.811  0.0000  0.0000  0.0000
 5818OM     OM1 5818   5.358   7.256   0.330  0.0000  0.0000  0.0000
 5819OM     OM1 5819   5.207   7.436   0.225  0.0000  0.0000  0.0000
 5820OM     OM1 5820   3.748   0.562   9.017  0.0000  0.0000  0.0000
 5821OM     OM1 5821   4.126   0.248   8.871  0.0000  0.0000  0.0000
 5822OM     OM1 5822   1.303   4.094   0.792  0.0000  0.0000  0.0000
 5823OM     OM1 5823   1.285   4.277   0.607  0.0000  0.0000  0.0000
 5824OM     OM1 5824   6.571   1.005   9.081  0.0000  0.0000  0.0000
 5825OM     OM1 5825   6.796   1.027   9.212  0.0000  0.0000  0.0000
 5826OM     OM1 5826   7.015   1.051   9.083  0.0000  0.0000  0.0000
 5827OM     OM1 5827   6.934   1.255   9.227  0.0000  0.0000  0.0000
 5828OM     OM1 5828   0.546   5.689   1.124  0.0000  0.0000  0.0000
 5829OM     OM1 5829   0.372   5.643   1.304  0.0000  0.0000  0.0000
 5830OM     OM1 5830   9.018   4.700   1.326  0.0000  0.0000  0.0000
 5831OM     OM1 5831   8.001   0.508   0.529  0.0000  0.0000  0.0000
 5832OM     OM1 5832   3.900   7.541   1.103  0.0000  0.0000  0.0000
 5833OM     OM1 5833   3.741   7.628   1.291  0.0000  0.0000  0.0000
 5834OM     OM1 5834   3.981   7.711   1.291  0.0000  0.0000  0.0000
 5835OM     OM1 5835   5.485   5.666   9.325  0.0000  0.0000  0.0000
 5836OM     OM1 5836   5.493   5.916   9.262  0.0000  0.0000  0.0000
 5837OM     OM1 5837   5.477   6.055   9.034  0.0000  0.0000  0.0000
 5838OM     OM1 5838   5.681   6.083   9.182  0.0000  0.0000  0.0000
 5839OM     OM1 5839   1.336   3.468   1.286  0.0000  0.0000  0.0000
 5840OM     OM1 5840   1.457   3.698   1.283  0.0000  0.0000  0.0000
 5841OM     OM1 5841   1.215   3.676   1.185  0.0000  0.0000  0.0000
 5842OM     OM1 5842   1.396   3.547   1.065  0.0000  0.0000  0.0000
 5843OM     OM1 5843   5.619   0.404   1.106  0.0000  0.0000  0.0000
 5844OM     OM1 5844   5.857   0.599   0.883  0.0000  0.0000  0.0000
 5845OM     OM1 5845   6.172   3.862   8.296  0.0000  0.0000  0.0000
 5846OM     OM1 5846   6.411   3.734   8.257  0.0000  0.0000  0.0000
 5847OM     OM1 5847   7.674   0.609   8.576  0.0000  0.0000  0.0000
 5848OM     OM1 5848   7.642   0.806   8.400  0.0000  0.0000  0.0000
 5849OM     OM1 5849   7.509   0.597   8.377  0.0000  0.0000  0.0000
 5850OM     OM1 5850   6.489   9.208   0.324  0.0000  0.0000  0.0000
 5851OM     OM1 5851   6.554   9.449   0.247  0.0000  0.0000  0.0000
 5852OM     OM1 5852   6.342   9.419   0.390  0.0000  0.0000  0.0000
 5853OM     OM1 5853   7.092   5.892   0.294  0.0000  0.0000  0.0000
 5854OM     OM1 5854   8.839   3.426   1.159  0.0000  0.0000  0.0000
 5855OM     OM1 5855   9.007   3.484   0.973  0.0000  0.0000  0.0000
 5856OM     OM1 5856   8.974   3.655   1.177  0.0000  0.0000  0.0000
 5857OM     OM1 5857   8.789   3.632   0.998  0.0000  0.0000  0.0000
 5858OM     OM1 5858   7.495   0.118   0.238  0.0000  0.0000  0.0000
 5859OM     OM1 5859   7.248   0.066   0.282  0.0000  0.0000  0.0000
 5860OM     OM1 5860   2.856   8.821   8.442  0.0000  0.0000  0.0000
 5861OM     OM1 5861   2.811   8.915   8.674  0.0000  0.0000  0.0000
 5862OM     OM1 5862   5.962   2.841   8.686  0.0000  0.0000  0.0000
 5863OM     OM1 5863   5.824   2.893   9.122  0.0000  0.0000  0.0000
 5864OM     OM1 5864   5.818   2.794   8.899  0.0000  0.0000  0.0000
 5865OM     OM1 5865   1.609   4.926   8.625  0.0000  0.0000  0.0000
 5866OM     OM1 5866   1.389   5.059   8.562  0.0000  0.0000  0.0000
 5867OM     OM1 5867   1.462   5.029   8.810  0.0000  0.0000  0.0000
 5868OM     OM1 5868   0.776   6.458   0.076  0.0000  0.0000  0.0000
 5869OM     OM1 5869   0.940   6.249   0.108  0.0000  0.0000  0.0000
 5870OM     OM1 5870   3.912   2.789   0.880  0.0000  0.0000  0.0000
 5871OM     OM1 5871   3.714   2.883   1.024  0.0000  0.0000  0.0000
 5872OM     OM1 5872   3.694   2.886   0.761  0.0000  0.0000  0.0000
 5873OM     OM1 5873   6.097   5.920   0.349  0.0000  0.0000  0.0000
 5874OM     OM1 5874   6.179   6.170   0.401  0.0000  0.0000  0.0000
 5875OM     OM1 5875   6.112   6.098   0.159  0.0000  0.0000  0.0000
 5876OM     OM1 5876   2.063   7.497   9.523  0.0000  0.0000  0.0000
 5877OM     OM1 5877   1.919   7.640   0.070  0.0000  0.0000  0.0000
 5878OM     OM1 5878   2.096   7.763   9.521  0.0000  0.0000  0.0000
 5879OM     OM1 5879   2.184   7.619   0.110  0.0000  0.0000  0.0000
 5880OM     OM1 5880   5.645   7.710   8.963  0.0000  0.0000  0.0000
 5881OM     OM1 5881   5.635   7.944   9.049  0.0000  0.0000  0.0000
 5882OM     OM1 5882   5.748   7.754   9.202  0.0000  0.0000  0.0000
 5883OM     OM1 5883   5.861   7.865   8.977  0.0000  0.0000  0.0000
 5884OM     OM1 5884   2.306   1.500   0.826  0.0000  0.0000  0.0000
 5885OM     OM1 5885   2.364   1.474   0.564  0.0000  0.0000  0.0000
 5886OM     OM1 5886   2.362   1.713   0.676  0.0000  0.0000  0.0000
 5887OM     OM1 5887   2.109   3.060   8.645  0.0000  0.0000  0.0000
 5888OM     OM1 5888   2.025   2.804   8.623  0.0000  0.0000  0.0000
 5889OM     OM1 5889   1.819   3.827   9.582  0.0000  0.0000  0.0000
 5890OM     OM1 5890   1.936   3.976   0.162  0.0000  0.0000  0.0000
 5891OM     OM1 5891   1.817   3.747   0.222  0.0000  0.0000  0.0000
 5892OM     OM1 5892   1.205   9.482   1.070  0.0000  0.0000  0.0000
 5893OM     OM1 5893   1.137   9.238   1.076  0.0000  0.0000  0.0000
 5894OM     OM1 5894   1.395   9.300   1.108  0.0000  0.0000  0.0000
 5895OM     OM1 5895   5.154   5.664   9.115  0.0000  0.0000  0.0000
 5896OM     OM1 5896   5.176   5.452   8.965  0.0000  0.0000  0.0000
 5897OM     OM1 5897   5.002   5.449   9.154  0.0000  0.0000  0.0000
 5898OM     OM1 5898   6.574   5.539   1.047  0.0000  0.0000  0.0000
 5899OM     OM1 5899   6.749   5.607   0.869  0.0000  0.0000  0.0000
 5900OM     OM1 5900   6.574   5.783   0.931  0.0000  0.0000  0.0000
 5901OM     OM1 5901   3.239   5.838   0.287  0.0000  0.0000  0.0000
 5902OM     OM1 5902   3.234   5.708   0.065  0.0000  0.0000  0.0000
 5903OM     OM1 5903   3.471   5.773   0.169  0.0000  0.0000  0.0000
 5904OM     OM1 5904   9.290   3.939   8.870  0.0000  0.0000  0.0000
 5905OM     OM1 5905   9.175   3.721   8.963  0.0000  0.0000  0.0000
 5906OM     OM1 5906   9.027   3.894   8.843  0.0000  0.0000  0.0000
 5907OM     OM1 5907   9.193   3.763   8.698  0.0000  0.0000  0.0000
 5908OM     OM1 5908   0.465   0.106   8.896  0.0000  0.0000  0.0000
 5909OM     OM1 5909   0.280   9.520   8.894  0.0000  0.0000  0.0000
 5910OM     OM1 5910   0.290   0.077   9.090  0.0000  0.0000  0.0000
 5911OM     OM1 5911   2.242   5.136   9.313  0.0000  0.0000  0.0000
 5912OM     OM1 5912   2.426   5.114   9.121  0.0000  0.0000  0.0000
 5913OM     OM1 5913   2.374   4.908   9.254  0.0000  0.0000  0.0000
 5914OM     OM1 5914   2.224   4.072   8.705  0.0000  0.0000  0.0000
 5915OM     OM1 5915   2.129   4.017   8.931  0.0000  0.0000  0.0000
 5916OM     OM1 5916   2.109   3.838   8.735  0.0000  0.0000  0.0000
 5917OM     OM1 5917   5.564   8.790   8.880  0.0000  0.0000  0.0000
 5918OM     OM1 5918   5.726   8.941   9.006  0.0000  0.0000  0.0000
 5919OM     OM1 5919   3.924   4.761   1.412  0.0000  0.0000  0.0000
 5920OM     OM1 5920   6.622   0.926   9.595  0.0000  0.0000  0.0000
 5921OM     OM1 5921   6.598   0.911   9.329  0.0000  0.0000  0.0000
 5922OM     OM1 5922   6.553   1.136   9.451  0.0000  0.0000  0.0000
 5923OM     OM1 5923   3.023   5.300   9.513  0.0000  0.0000  0.0000
 5924OM     OM1 5924   3.199   5.363   0.081  0.0000  0.0000  0.0000
 5925OM     OM1 5925   3.120   5.542   9.514  0.0000  0.0000  0.0000
 5926OM     OM1 5926   0.887   7.625   0.525  0.0000  0.0000  0.0000
 5927OM     OM1 5927   1.199   7.626   0.659  0.0000  0.0000  0.0000
 5928OM     OM1 5928   1.835   6.280   1.013  0.0000  0.0000  0.0000
 5929OM     OM1 5929   2.073   6.199   0.961  0.0000  0.0000  0.0000
 5930OM     OM1 5930   9.522   2.129   0.413  0.0000  0.0000  0.0000
 5931OM     OM1 5931   9.428   1.950   0.257  0.0000  0.0000  0.0000
 5932OM     OM1 5932   9.501   2.177   0.154  0.0000  0.0000  0.0000
 5933OM     OM1 5933   9.288   2.173   0.299  0.0000  0.0000  0.0000
 5934OM     OM1 5934   1.555   5.405   0.704  0.0000  0.0000  0.0000
 5935OM     OM1 5935   8.485   7.130   9.204  0.0000  0.0000  0.0000
 5936OM     OM1 5936   8.285   7.205   9.360  0.0000  0.0000  0.0000
 5937OM     OM1 5937   9.194   4.383   9.105  0.0000  0.0000  0.0000
 5938OM     OM1 5938   9.305   4.177   8.976  0.0000  0.0000  0.0000
 5939OM     OM1 5939   1.515   8.622   0.881  0.0000  0.0000  0.0000
 5940OM     OM1 5940   1.573   8.679   1.119  0.0000  0.0000  0.0000
 5941OM     OM1 5941   1.769   8.616   0.946  0.0000  0.0000  0.0000
 5942OM     OM1 5942   1.616   8.433   1.030  0.0000  0.0000  0.0000
 5943OM     OM1 5943   5.197   2.083   0.373  0.0000  0.0000  0.0000
 5944OM     OM1 5944   5.377   2.268   0.418  0.0000  0.0000  0.0000
 5945OM     OM1 5945   5.112   2.312   0.396  0.0000  0.0000  0.0000
 5946OM     OM1 5946   0.481   8.570   0.831  0.0000  0.0000  0.0000
 5947OM     OM1 5947   0.438   8.442   0.609  0.0000  0.0000  0.0000
 5948OM     OM1 5948   0.241   8.468   0.785  0.0000  0.0000  0.0000
 5949OM     OM1 5949   1.389   7.644   0.403  0.0000  0.0000  0.0000
 5950OM     OM1 5950   1.418   7.901   0.386  0.0000  0.0000  0.0000
 5951OM     OM1 5951   1.618   7.740   0.453  0.0000  0.0000  0.0000
 5952OM     OM1 5952   1.412   7.775   0.619  0.0000  0.0000  0.0000
 5953OM     OM1 5953   4.763   9.464   0.250  0.0000  0.0000  0.0000
 5954OM     OM1 5954   4.896   0.079   0.318  0.0000  0.0000  0.0000
 5955OM     OM1 5955   4.799   9.540   0.492  0.0000  0.0000  0.0000
 5956OM     OM1 5956   4.629   0.061   0.340  0.0000  0.0000  0.0000
 5957OM     OM1 5957   7.968   0.294   9.465  0.0000  0.0000  0.0000
 5958OM     OM1 5958   7.887   0.348   0.092  0.0000  0.0000  0.0000
 5959OM     OM1 5959   7.854   0.522   9.507  0.0000  0.0000  0.0000
 5960OM     OM1 5960   7.700   0.319   9.508  0.0000  0.0000  0.0000
 5961OM     OM1 5961   3.485   5.876   1.120  0.0000  0.0000  0.0000
 5962OM     OM1 5962   3.396   5.693   0.960  0.0000  0.0000  0.0000
 5963OM     OM1 5963   2.588   6.859   1.112  0.0000  0.0000  0.0000
 5964OM     OM1 5964   2.704   7.161   1.196  0.0000  0.0000  0.0000
 5965OM     OM1 5965   2.760   6.932   1.287  0.0000  0.0000  0.0000
 5966OM     OM1 5966   3.897   1.638   0.193  0.0000  0.0000  0.0000
 5967OM     OM1 5967   4.055   1.649   0.405  0.0000  0.0000  0.0000
 5968OM     OM1 5968   8.084   3.912   1.067  0.0000  0.0000  0.0000
 5969OM     OM1 5969   8.212   3.703   1.182  0.0000  0.0000  0.0000
 5970OM     OM1 5970   3.401   4.669   8.696  0.0000  0.0000  0.0000
 5971OM     OM1 5971   3.531   4.467   8.813  0.0000  0.0000  0.0000
 5972OM     OM1 5972   3.325   4.415   8.669  0.0000  0.0000  0.0000
 5973OM     OM1 5973   3.445   4.802   8.898  0.0000  0.0000  0.0000
 5974OM     OM1 5974   5.592   9.026   1.411  0.0000  0.0000  0.0000
 5975OM     OM1 5975   5.821   9.107   1.314  0.0000  0.0000  0.0000
 5976OM     OM1 5976   3.561   5.599   0.782  0.0000  0.0000  0.0000
 5977OM     OM1 5977   3.790   5.627   0.901  0.0000  0.0000  0.0000
 5978OM     OM1 5978   4.680   4.764   0.864  0.0000  0.0000  0.0000
 5979OM     OM1 5979   4.787   5.167   1.064  0.0000  0.0000  0.0000
 5980OM     OM1 5980   4.826   4.911   1.013  0.0000  0.0000  0.0000
 5981OM     OM1 5981   4.616   4.802   1.118  0.0000  0.0000  0.0000
 5982OM     OM1 5982   1.820   8.908   1.079  0.0000  0.0000  0.0000
 5983OM     OM1 5983   1.963   9.085   0.942  0.0000  0.0000  0.0000
 5984OM     OM1 5984   3.560   4.199   0.454  0.0000  0.0000  0.0000
 5985OM     OM1 5985   3.727   4.368   0.356  0.0000  0.0000  0.0000
 5986OM     OM1 5986   3.634   4.411   0.602  0.0000  0.0000  0.0000
 5987OM     OM1 5987   6.700   3.662   8.999  0.0000  0.0000  0.0000
 5988OM     OM1 5988   6.739   3.908   9.067  0.0000  0.0000  0.0000
 5989OM     OM1 5989   7.040   7.611   0.630  0.0000  0.0000  0.0000
 5990OM     OM1 5990   7.137   7.764   0.449  0.0000  0.0000  0.0000
 5991OM     OM1 5991   6.152   2.945   1.190  0.0000  0.0000  0.0000
 5992OM     OM1 5992   6.377   3.071   1.141  0.0000  0.0000  0.0000
 5993OM     OM1 5993   1.237   5.609   9.134  0.0000  0.0000  0.0000
 5994OM     OM1 5994   1.106   5.535   8.922  0.0000  0.0000  0.0000
 5995OM     OM1 5995   1.364   5.481   8.948  0.0000  0.0000  0.0000
 5996OM     OM1 5996   1.294   5.726   8.906  0.0000  0.0000  0.0000
 5997OM     OM1 5997   5.776   3.271   1.425  0.0000  0.0000  0.0000
 5998OM     OM1 5998   5.837   3.013   1.431  0.0000  0.0000  0.0000
 5999OM     OM1 5999   4.824   6.816   0.233  0.0000  0.0000  0.0000
 6000OM     OM1 6000   2.641   3.422   1.347  0.0000  0.0000  0.0000
 6001OM     OM1 6001   2.461   3.598   1.296  0.0000  0.0000  0.0000
 6002OM     OM1 6002   5.855   0.826   9.034  0.0000  0.0000  0.0000
 6003OM     OM1 6003   5.642   0.943   9.132  0.0000  0.0000  0.0000
 6004OM     OM1 6004   5.648   0.687   9.109  0.0000  0.0000  0.0000
 6005OM     OM1 6005   3.952   7.087   8.428  0.0000  0.0000  0.0000
 6006OM     OM1 6006   3.932   6.821   8.440  0.0000  0.0000  0.0000
 6007OM     OM1 6007   4.921   3.311   9.455  0.0000  0.0000  0.0000
 6008OM     OM1 6008   4.942   3.455   0.070  0.0000  0.0000  0.0000
 6009OM     OM1 6009   4.886   3.205   0.099  0.0000  0.0000  0.0000
 6010OM     OM1 6010   5.115   3.266   0.016  0.0000  0.0000  0.0000
 6011OM     OM1 6011   9.373   4.174   9.508  0.0000  0.0000  0.0000
 6012OM     OM1 6012   9.340   3.924   9.562  0.0000  0.0000  0.0000
 6013OM     OM1 6013   8.421   9.472   8.435  0.0000  0.0000  0.0000
 6014OM     OM1 6014   8.674   9.399   8.438  0.0000  0.0000  0.0000
 6015OM     OM1 6015   8.503   9.303   8.610  0.0000  0.0000  0.0000
 6016OM     OM1 6016   5.286   4.688   0.801  0.0000  0.0000  0.0000
 6017OM     OM1 6017   5.290   4.422   0.771  0.0000  0.0000  0.0000
 6018OM     OM1 6018   5.353   4.584   0.571  0.0000  0.0000  0.0000
 6019OM     OM1 6019   5.106   4.555   0.656  0.0000  0.0000  0.0000
 6020OM     OM1 6020   6.948   8.662   9.023  0.0000  0.0000  0.0000
 6021OM     OM1 6021   7.136   8.749   9.186  0.0000  0.0000  0.0000
 6022OM     OM1 6022   2.614   2.373   9.523  0.0000  0.0000  0.0000
 6023OM     OM1 6023   2.512   2.606   9.553  0.0000  0.0000  0.0000
 6024OM     OM1 6024   2.728   2.531   0.084  0.0000  0.0000  0.0000
 6025OM     OM1 6025   2.731   2.573   9.417  0.0000  0.0000  0.0000
 6026OM     OM1 6026   4.262   5.531   8.258  0.0000  0.0000  0.0000
 6027OM     OM1 6027   4.362   5.741   8.367  0.0000  0.0000  0.0000
 6028OM     OM1 6028   4.309   0.969   1.002  0.0000  0.0000  0.0000
 6029OM     OM1 6029   4.193   0.926   0.776  0.0000  0.0000  0.0000
 6030OM     OM1 6030   4.431   0.821   0.829  0.0000  0.0000  0.0000
 6031OM     OM1 6031   7.405   3.657   1.294  0.0000  0.0000  0.0000
 6032OM     OM1 6032   7.586   3.818   1.268  0.0000  0.0000  0.0000
 6033OM     OM1 6033   2.693   2.770   0.609  0.0000  0.0000  0.0000
 6034OM     OM1 6034   2.905   2.646   0.669  0.0000  0.0000  0.0000
 6035OM     OM1 6035   3.303   5.684   9.282  0.0000  0.0000  0.0000
 6036OM     OM1 6036   3.546   5.740   9.361  0.0000  0.0000  0.0000
 6037OM     OM1 6037   3.511   5.595   9.145  0.0000  0.0000  0.0000
 6038OM     OM1 6038   4.904   8.413   8.278  0.0000  0.0000  0.0000
 6039OM     OM1 6039   6.995   9.371   8.602  0.0000  0.0000  0.0000
 6040OM     OM1 6040   6.963   9.511   8.813  0.0000  0.0000  0.0000
 6041OM     OM1 6041   7.056   9.275   8.844  0.0000  0.0000  0.0000
 6042OM     OM1 6042   6.812   9.292   8.781  0.0000  0.0000  0.0000
 6043OM     OM1 6043   4.985   1.290   0.067  0.0000  0.0000  0.0000
 6044OM     OM1 6044   4.801   1.319   9.473  0.0000  0.0000  0.0000
 6045OM     OM1 6045   4.836   1.499   0.041  0.0000  0.0000  0.0000
 6046OM     OM1 6046   4.729   1.260   0.109  0.0000  0.0000  0.0000
 6047OM     OM1 6047   4.763   6.040   0.286  0.0000  0.0000  0.0000
 6048OM     OM1 6048   4.831   5.862   0.120  0.0000  0.0000  0.0000
 6049OM     OM1 6049   4.720   5.798   0.351  0.0000  0.0000  0.0000
 6050OM     OM1 6050   1.503   9.496   9.147  0.0000  0.0000  0.0000
 6051OM     OM1 6051   4.383   1.053   1.241  0.0000  0.0000  0.0000
 6052OM     OM1 6052   6.681   6.020   0.851  0.0000  0.0000  0.0000
 6053OM     OM1 6053   6.782   6.262   0.900  0.0000  0.0000  0.0000
 6054OM     OM1 6054   6.932   6.048   0.903  0.0000  0.0000  0.0000
 6055OM     OM1 6055   6.627   8.607   8.657  0.0000  0.0000  0.0000
 6056OM     OM1 6056   6.769   8.634   8.460  0.0000  0.0000  0.0000
 6057OM     OM1 6057   6.528   8.709   8.428  0.0000  0.0000  0.0000
 6058OM     OM1 6058   0.977   7.274   9.511  0.0000  0.0000  0.0000
 6059OM     OM1 6059   0.969   7.513   9.407  0.0000  0.0000  0.0000
 6060OM     OM1 6060   0.757   7.353   9.395  0.0000  0.0000  0.0000
 6061OM     OM1 6061   2.455   9.355   0.089  0.0000  0.0000  0.0000
 6062OM     OM1 6062   3.824   8.179   0.499  0.0000  0.0000  0.0000
 6063OM     OM1 6063   4.005   8.248   0.666  0.0000  0.0000  0.0000
 6064OM     OM1 6064   3.967   8.399   0.456  0.0000  0.0000  0.0000
 6065OM     OM1 6065   7.482   7.694   9.190  0.0000  0.0000  0.0000
 6066OM     OM1 6066   7.496   7.941   9.118  0.0000  0.0000  0.0000
 6067OM     OM1 6067   7.583   7.866   9.356  0.0000  0.0000  0.0000
 6068OM     OM1 6068   7.072   5.165   0.056  0.0000  0.0000  0.0000
 6069OM     OM1 6069   7.216   5.363   9.535  0.0000  0.0000  0.0000
 6070OM     OM1 6070   4.550   7.842   8.570  0.0000  0.0000  0.0000
 6071OM     OM1 6071   4.351   7.995   8.576  0.0000  0.0000  0.0000
 6072OM     OM1 6072   4.571   8.052   8.714  0.0000  0.0000  0.0000
 6073OM     OM1 6073   4.566   8.083   8.456  0.0000  0.0000  0.0000
 6074OM     OM1 6074   6.278   2.691   9.070  0.0000  0.0000  0.0000
 6075OM     OM1 6075   6.063   2.816   9.049  0.0000  0.0000  0.0000
 6076OM     OM1 6076   7.086   3.175   0.946  0.0000  0.0000  0.0000
 6077OM     OM1 6077   6.851   3.226   1.029  0.0000  0.0000  0.0000
 6078OM     OM1 6078   6.975   3.422   0.895  0.0000  0.0000  0.0000
 6079OM     OM1 6079   2.686   6.402   1.161  0.0000  0.0000  0.0000
 6080OM     OM1 6080   2.910   6.558   1.188  0.0000  0.0000  0.0000
 6081OM     OM1 6081   0.357   4.873   0.625  0.0000  0.0000  0.0000
 6082OM     OM1 6082   0.526   4.954   0.809  0.0000  0.0000  0.0000
 6083OM     OM1 6083   0.535   5.053   0.561  0.0000  0.0000  0.0000
 6084OM     OM1 6084   0.404   2.685   0.120  0.0000  0.0000  0.0000
 6085OM     OM1 6085   0.651   2.705   0.044  0.0000  0.0000  0.0000
 6086OM     OM1 6086   0.474   2.531   9.533  0.0000  0.0000  0.0000
 6087OM     OM1 6087   0.477   2.786   9.486  0.0000  0.0000  0.0000
 6088OM     OM1 6088   4.756   9.244   1.282  0.0000  0.0000  0.0000
 6089OM     OM1 6089   4.919   9.018   1.295  0.0000  0.0000  0.0000
 6090OM     OM1 6090   9.489   2.799   9.040  0.0000  0.0000  0.0000
 6091OM     OM1 6091   0.031   3.000   8.973  0.0000  0.0000  0.0000
 6092OM     OM1 6092   0.098   2.832   9.177  0.0000  0.0000  0.0000
 6093OM     OM1 6093   0.129   2.765   8.935  0.0000  0.0000  0.0000
 6094OM     OM1 6094   3.195   8.691   9.247  0.0000  0.0000  0.0000
 6095OM     OM1 6095   3.452   8.714   9.173  0.0000  0.0000  0.0000
 6096OM     OM1 6096   3.310   8.520   9.088  0.0000  0.0000  0.0000
 6097OM     OM1 6097   2.368   1.421   8.606  0.0000  0.0000  0.0000
 6098OM     OM1 6098   2.212   1.296   8.779  0.0000  0.0000  0.0000
 6099OM     OM1 6099   6.944   9.101   1.297  0.0000  0.0000  0.0000
 6100OM     OM1 6100   6.776   9.307   1.291  0.0000  0.0000  0.0000
 6101OM     OM1 6101   7.031   9.339   1.261  0.0000  0.0000  0.0000
 6102OM     OM1 6102   5.660   0.686   9.371  0.0000  0.0000  0.0000
 6103OM     OM1 6103   5.714   0.472   9.252  0.0000  0.0000  0.0000
 6104OM     OM1 6104   2.843   5.271   9.329  0.0000  0.0000  0.0000
 6105OM     OM1 6105   2.605   5.276   9.221  0.0000  0.0000  0.0000
 6106OM     OM1 6106   2.794   5.402   9.111  0.0000  0.0000  0.0000
 6107OM     OM1 6107   2.713   5.493   9.344  0.0000  0.0000  0.0000
 6108OM     OM1 6108   0.336   2.902   8.312  0.0000  0.0000  0.0000
 6109OM     OM1 6109   0.245   3.063   8.494  0.0000  0.0000  0.0000
 6110OM     OM1 6110   0.472   3.117   8.369  0.0000  0.0000  0.0000
 6111OM     OM1 6111   8.088   1.987   0.313  0.0000  0.0000  0.0000
 6112OM     OM1 6112   8.497   2.225   0.456  0.0000  0.0000  0.0000
 6113OM     OM1 6113   8.296   2.062   0.463  0.0000  0.0000  0.0000
 6114OM     OM1 6114   8.528   5.255   0.757  0.0000  0.0000  0.0000
 6115OM     OM1 6115   8.687   5.581   0.542  0.0000  0.0000  0.0000
 6116OM     OM1 6116   7.784   7.787   8.293  0.0000  0.0000  0.0000
 6117OM     OM1 6117   7.590   7.918   8.425  0.0000  0.0000  0.0000
 6118OM     OM1 6118   3.643   4.839   9.448  0.0000  0.0000  0.0000
 6119OM     OM1 6119   3.219   1.703   0.838  0.0000  0.0000  0.0000
 6120OM     OM1 6120   3.391   1.520   0.912  0.0000  0.0000  0.0000
 6121OM     OM1 6121   3.478   1.748   0.828  0.0000  0.0000  0.0000
 6122OM     OM1 6122   1.465   1.634   1.214  0.0000  0.0000  0.0000
 6123OM     OM1 6123   1.484   1.375   1.211  0.0000  0.0000  0.0000
 6124OM     OM1 6124   3.940   6.853   1.000  0.0000  0.0000  0.0000
 6125OM     OM1 6125   3.935   6.608   1.065  0.0000  0.0000  0.0000
 6126OM     OM1 6126   4.011   6.785   1.237  0.0000  0.0000  0.0000
 6127OM     OM1 6127   4.165   6.706   1.034  0.0000  0.0000  0.0000
 6128OM     OM1 6128   9.593   3.057   9.459  0.0000  0.0000  0.0000
 6129OM     OM1 6129   4.664   6.807   0.961  0.0000  0.0000  0.0000
 6130OM     OM1 6130   4.807   6.873   1.189  0.0000  0.0000  0.0000
 6131OM     OM1 6131   4.558   6.866   1.186  0.0000  0.0000  0.0000
 6132OM     OM1 6132   1.028   9.375   9.211  0.0000  0.0000  0.0000
 6133OM     OM1 6133   0.893   9.217   9.369  0.0000  0.0000  0.0000
 6134OM     OM1 6134   1.147   9.182   9.346  0.0000  0.0000  0.0000
 6135OM     OM1 6135   0.948   9.118   8.949  0.0000  0.0000  0.0000
 6136OM     OM1 6136   0.810   9.431   9.074  0.0000  0.0000  0.0000
 6137OM     OM1 6137   5.441   8.595   0.656  0.0000  0.0000  0.0000
 6138OM     OM1 6138   5.302   8.680   0.853  0.0000  0.0000  0.0000
 6139OM     OM1 6139   5.397   8.853   0.680  0.0000  0.0000  0.0000
 6140OM     OM1 6140   5.202   8.693   0.612  0.0000  0.0000  0.0000
 6141OM     OM1 6141   6.106   1.176   0.706  0.0000  0.0000  0.0000
 6142OM     OM1 6142   6.180   1.413   0.652  0.0000  0.0000  0.0000
 6143OM     OM1 6143   6.004   1.300   0.488  0.0000  0.0000  0.0000
 6144OM     OM1 6144   6.735   5.146   8.507  0.0000  0.0000  0.0000
 6145OM     OM1 6145   4.064   8.510   8.459  0.0000  0.0000  0.0000
 6146OM     OM1 6146   4.155   8.423   8.687  0.0000  0.0000  0.0000
 6147OM     OM1 6147   4.325   8.441   8.494  0.0000  0.0000  0.0000
 6148OM     OM1 6148   8.325   7.634   1.262  0.0000  0.0000  0.0000
 6149OM     OM1 6149   8.200   7.419   1.220  0.0000  0.0000  0.0000
 6150OM     OM1 6150   7.485   6.974   1.181  0.0000  0.0000  0.0000
 6151OM     OM1 6151   7.415   6.727   1.214  0.0000  0.0000  0.0000
 6152OM     OM1 6152   7.235   6.918   1.170  0.0000  0.0000  0.0000
 6153OM     OM1 6153   7.385   6.854   0.976  0.0000  0.0000  0.0000
 6154OM     OM1 6154   0.411   6.243   8.927  0.0000  0.0000  0.0000
 6155OM     OM1 6155   8.075   9.324   9.496  0.0000  0.0000  0.0000
 6156OM     OM1 6156   7.878   9.326   9.336  0.0000  0.0000  0.0000
 6157OM     OM1 6157   8.095   9.193   9.258  0.0000  0.0000  0.0000
 6158OM     OM1 6158   6.876   4.399   0.146  0.0000  0.0000  0.0000
 6159OM     OM1 6159   6.673   4.345   9.587  0.0000  0.0000  0.0000
 6160OM     OM1 6160   8.669   0.152   9.181  0.0000  0.0000  0.0000
 6161OM     OM1 6161   8.720   9.472   9.217  0.0000  0.0000  0.0000
 6162OM     OM1 6162   8.938   9.562   9.135  0.0000  0.0000  0.0000
 6163OM     OM1 6163   4.576   3.437   8.447  0.0000  0.0000  0.0000
 6164OM     OM1 6164   4.317   3.416   8.490  0.0000  0.0000  0.0000
 6165OM     OM1 6165   0.895   0.965   8.977  0.0000  0.0000  0.0000
 6166OM     OM1 6166   0.764   0.870   9.178  0.0000  0.0000  0.0000
 6167OM     OM1 6167   4.619   9.300   0.832  0.0000  0.0000  0.0000
 6168OM     OM1 6168   4.393   0.071   0.994  0.0000  0.0000  0.0000
 6169OM     OM1 6169   4.211   9.564   0.831  0.0000  0.0000  0.0000
 6170OM     OM1 6170   4.443   9.473   0.836  0.0000  0.0000  0.0000
 6171OM     OM1 6171   3.910   9.498   8.695  0.0000  0.0000  0.0000
 6172OM     OM1 6172   3.843   9.521   8.440  0.0000  0.0000  0.0000
 6173OM     OM1 6173   4.755   8.202   8.321  0.0000  0.0000  0.0000
 6174OM     OM1 6174   5.004   8.230   8.430  0.0000  0.0000  0.0000
 6175OM     OM1 6175   1.242   9.569   0.399  0.0000  0.0000  0.0000
 6176OM     OM1 6176   1.243   9.531   9.602  0.0000  0.0000  0.0000
 6177OM     OM1 6177   1.436   0.112   0.003  0.0000  0.0000  0.0000
 6178OM     OM1 6178   1.069   0.132   0.427  0.0000  0.0000  0.0000
 6179OM     OM1 6179   8.812   7.319   8.713  0.0000  0.0000  0.0000
 6180OM     OM1 6180   8.980   7.508   8.751  0.0000  0.0000  0.0000
 6181OM     OM1 6181   3.983   3.461   9.329  0.0000  0.0000  0.0000
 6182OM     OM1 6182   4.194   3.524   9.198  0.0000  0.0000  0.0000
 6183OM     OM1 6183   4.043   3.341   9.094  0.0000  0.0000  0.0000
 6184OM     OM1 6184   4.176   3.284   9.311  0.0000  0.0000  0.0000
 6185OM     OM1 6185   9.156   4.383   1.207  0.0000  0.0000  0.0000
 6186OM     OM1 6186   9.365   4.528   1.261  0.0000  0.0000  0.0000
 6187OM     OM1 6187   9.319   4.298   1.385  0.0000  0.0000  0.0000
 6188OM     OM1 6188   4.781   4.670   0.382  0.0000  0.0000  0.0000
 6189OM     OM1 6189   4.844   4.601   0.624  0.0000  0.0000  0.0000
 6190OM     OM1 6190   4.654   4.766   0.599  0.0000  0.0000  0.0000
 6191OM     OM1 6191   4.612   4.525   0.510  0.0000  0.0000  0.0000
 6192OM     OM1 6192   8.771   8.858   8.416  0.0000  0.0000  0.0000
 6193OM     OM1 6193   7.392   4.709   8.988  0.0000  0.0000  0.0000
 6194OM     OM1 6194   7.580   4.864   8.920  0.0000  0.0000  0.0000
 6195OM     OM1 6195   7.327   4.927   8.856  0.0000  0.0000  0.0000
 6196OM     OM1 6196   7.402   4.953   9.098  0.0000  0.0000  0.0000
 6197OM     OM1 6197   0.217   2.675   8.257  0.0000  0.0000  0.0000
 6198OM     OM1 6198   0.137   2.496   8.429  0.0000  0.0000  0.0000
 6199OM     OM1 6199   9.568   5.924   8.428  0.0000  0.0000  0.0000
 6200OM     OM1 6200   0.015   7.538   8.566  0.0000  0.0000  0.0000
 6201OM     OM1 6201   0.178   7.603   8.377  0.0000  0.0000  0.0000
 6202OM     OM1 6202   0.072   7.778   8.562  0.0000  0.0000  0.0000
 6203OM     OM1 6203   6.288   2.379   0.291  0.0000  0.0000  0.0000
 6204OM     OM1 6204   6.214   2.506   0.519  0.0000  0.0000  0.0000
 6205OM     OM1 6205   7.786   8.147   9.282  0.0000  0.0000  0.0000
 6206OM     OM1 6206   7.791   8.171   9.558  0.0000  0.0000  0.0000
 6207OM     OM1 6207   7.640   8.315   9.398  0.0000  0.0000  0.0000
 6208OM     OM1 6208   3.700   8.770   0.046  0.0000  0.0000  0.0000
 6209OM     OM1 6209   3.784   8.822   9.402  0.0000  0.0000  0.0000
 6210OM     OM1 6210   6.349   4.195   9.153  0.0000  0.0000  0.0000
 6211OM     OM1 6211   6.241   4.251   9.386  0.0000  0.0000  0.0000
 6212OM     OM1 6212   6.097   4.239   9.164  0.0000  0.0000  0.0000
 6213OM     OM1 6213   6.190   4.020   9.257  0.0000  0.0000  0.0000
 6214OM     OM1 6214   3.609   1.482   1.030  0.0000  0.0000  0.0000
 6215OM     OM1 6215   2.680   4.569   0.604  0.0000  0.0000  0.0000
 6216OM     OM1 6216   2.912   4.458   0.523  0.0000  0.0000  0.0000
 6217OM     OM1 6217   2.775   4.360   0.718  0.0000  0.0000  0.0000
 6218OM     OM1 6218   2.428   4.034   8.548  0.0000  0.0000  0.0000
 6219OM     OM1 6219   2.528   3.973   8.309  0.0000  0.0000  0.0000
 6220OM     OM1 6220   0.688   0.010   8.940  0.0000  0.0000  0.0000
 6221OM     OM1 6221   8.993   7.761   0.258  0.0000  0.0000  0.0000
 6222OM     OM1 6222   9.168   7.573   0.279  0.0000  0.0000  0.0000
 6223OM     OM1 6223   8.183   2.534   8.548  0.0000  0.0000  0.0000
 6224OM     OM1 6224   8.044   2.660   8.346  0.0000  0.0000  0.0000
 6225OM     OM1 6225   8.297   2.696   8.368  0.0000  0.0000  0.0000
 6226OM     OM1 6226   1.151   5.207   9.390  0.0000  0.0000  0.0000
 6227OM     OM1 6227   1.158   4.956   9.461  0.0000  0.0000  0.0000
 6228OM     OM1 6228   1.303   5.113   9.587  0.0000  0.0000  0.0000
 6229OM     OM1 6229   7.184   4.035   1.302  0.0000  0.0000  0.0000
 6230OM     OM1 6230   7.961   5.550   1.215  0.0000  0.0000  0.0000
 6231OM     OM1 6231   7.996   5.787   1.116  0.0000  0.0000  0.0000
 6232OM     OM1 6232   7.757   5.714   1.190  0.0000  0.0000  0.0000
 6233OM     OM1 6233   0.105   3.638   8.269  0.0000  0.0000  0.0000
 6234OM     OM1 6234   8.171   9.324   8.804  0.0000  0.0000  0.0000
 6235OM     OM1 6235   8.211   0.032   8.415  0.0000  0.0000  0.0000
 6236OM     OM1 6236   0.223   1.869   8.609  0.0000  0.0000  0.0000
 6237OM     OM1 6237   0.378   1.918   8.817  0.0000  0.0000  0.0000
 6238OM     OM1 6238   0.367   2.077   8.592  0.0000  0.0000  0.0000
 6239OM     OM1 6239   7.149   8.534   8.599  0.0000  0.0000  0.0000
 6240OM     OM1 6240   7.326   8.477   8.763  0.0000  0.0000  0.0000
 6241OM     OM1 6241   7.384   8.629   8.541  0.0000  0.0000  0.0000
 6242OM     OM1 6242   7.254   8.723   8.744  0.0000  0.0000  0.0000
 6243OM     OM1 6243   5.413   8.006   1.015  0.0000  0.0000  0.0000
 6244OM     OM1 6244   5.581   7.816   0.942  0.0000  0.0000  0.0000
 6245OM     OM1 6245   7.485   5.840   0.699  0.0000  0.0000  0.0000
 6246OM     OM1 6246   6.477   4.532   8.807  0.0000  0.0000  0.0000
 6247OM     OM1 6247   6.717   4.509   8.884  0.0000  0.0000  0.0000
 6248OM     OM1 6248   3.808   3.547   9.503  0.0000  0.0000  0.0000
 6249OM     OM1 6249   3.668   3.355   9.401  0.0000  0.0000  0.0000
 6250OM     OM1 6250   3.659   3.393   0.053  0.0000  0.0000  0.0000
 6251OM     OM1 6251   5.707   1.123   1.282  0.0000  0.0000  0.0000
 6252OM     OM1 6252   4.945   8.684   0.515  0.0000  0.0000  0.0000
 6253OM     OM1 6253   4.725   8.774   0.629  0.0000  0.0000  0.0000
 6254OM     OM1 6254   4.783   8.524   0.637  0.0000  0.0000  0.0000
 6255OM     OM1 6255   9.392   3.321   0.662  0.0000  0.0000  0.0000
 6256OM     OM1 6256   9.571   3.556   0.512  0.0000  0.0000  0.0000
 6257OM     OM1 6257   9.464   3.284   0.414  0.0000  0.0000  0.0000
 6258OM     OM1 6258   0.035   3.330   0.603  0.0000  0.0000  0.0000
 6259OM     OM1 6259   5.470   8.791   0.035  0.0000  0.0000  0.0000
 6260OM     OM1 6260   5.531   8.754   9.385  0.0000  0.0000  0.0000
 6261OM     OM1 6261   5.716   8.844   9.555  0.0000  0.0000  0.0000
 6262OM     OM1 6262   0.975   3.567   1.130  0.0000  0.0000  0.0000
 6263OM     OM1 6263   0.737   3.622   1.216  0.0000  0.0000  0.0000
 6264OM     OM1 6264   0.760   3.426   1.047  0.0000  0.0000  0.0000
 6265OM     OM1 6265   2.584   9.208   1.137  0.0000  0.0000  0.0000
 6266OM     OM1 6266   9.217   7.298   8.552  0.0000  0.0000  0.0000
 6267OM     OM1 6267   7.152   5.462   8.283  0.0000  0.0000  0.0000
 6268OM     OM1 6268   7.665   2.360   0.319  0.0000  0.0000  0.0000
 6269OM     OM1 6269   7.406   2.388   0.293  0.0000  0.0000  0.0000
 6270OM     OM1 6270   7.516   2.345   0.526  0.0000  0.0000  0.0000
 6271OM     OM1 6271   7.503   2.151   0.339  0.0000  0.0000  0.0000
 6272OM     OM1 6272   5.351   0.236   8.601  0.0000  0.0000  0.0000
 6273OM     OM1 6273   5.215   0.086   8.760  0.0000  0.0000  0.0000
 6274OM     OM1 6274   5.105   0.315   8.667  0.0000  0.0000  0.0000
 6275OM     OM1 6275   4.910   0.349   8.832  0.0000  0.0000  0.0000
 6276OM     OM1 6276   8.332   5.874   8.563  0.0000  0.0000  0.0000
 6277OM     OM1 6277   8.517   6.031   8.481  0.0000  0.0000  0.0000
 6278OM     OM1 6278   1.508   2.119   9.341  0.0000  0.0000  0.0000
 6279OM     OM1 6279   1.569   2.264   9.128  0.0000  0.0000  0.0000
 6280OM     OM1 6280   1.571   1.996   9.131  0.0000  0.0000  0.0000
 6281OM     OM1 6281   1.356   2.131   9.113  0.0000  0.0000  0.0000
 6282OM     OM1 6282   9.483   9.057   0.704  0.0000  0.0000  0.0000
 6283OM     OM1 6283   4.080   4.014   0.260  0.0000  0.0000  0.0000
 6284OM     OM1 6284   4.038   3.889   0.485  0.0000  0.0000  0.0000
 6285OM     OM1 6285   4.266   4.012   0.445  0.0000  0.0000  0.0000
 6286OM     OM1 6286   5.977   7.121   9.146  0.0000  0.0000  0.0000
 6287OM     OM1 6287   6.221   7.220   9.134  0.0000  0.0000  0.0000
 6288OM     OM1 6288   5.601   6.830   0.437  0.0000  0.0000  0.0000
 6289OM     OM1 6289   5.522   6.888   0.201  0.0000  0.0000  0.0000
 6290OM     OM1 6290   6.321   7.504   0.084  0.0000  0.0000  0.0000
 6291OM     OM1 6291   6.138   7.337   0.177  0.0000  0.0000  0.0000
 6292OM     OM1 6292   6.242   5.721   0.423  0.0000  0.0000  0.0000
 6293OM     OM1 6293   6.170   5.755   0.175  0.0000  0.0000  0.0000
 6294OM     OM1 6294   5.996   5.672   0.363  0.0000  0.0000  0.0000
 6295OM     OM1 6295   4.694   3.485   0.156  0.0000  0.0000  0.0000
 6296OM     OM1 6296   4.878   3.587   0.298  0.0000  0.0000  0.0000
 6297OM     OM1 6297   7.611   4.182   0.375  0.0000  0.0000  0.0000
 6298OM     OM1 6298   7.717   4.014   0.198  0.0000  0.0000  0.0000
 6299OM     OM1 6299   7.571   4.211   0.122  0.0000  0.0000  0.0000
 6300OM     OM1 6300   7.814   4.251   0.227  0.0000  0.0000  0.0000
 6301OM     OM1 6301   5.833   1.931   1.006  0.0000  0.0000  0.0000
 6302OM     OM1 6302   5.705   2.071   1.186  0.0000  0.0000  0.0000
 6303OM     OM1 6303   5.807   1.854   1.260  0.0000  0.0000  0.0000
 6304OM     OM1 6304   9.152   8.384   9.502  0.0000  0.0000  0.0000
 6305OM     OM1 6305   8.951   8.287   0.042  0.0000  0.0000  0.0000
 6306OM     OM1 6306   5.269   1.222   1.121  0.0000  0.0000  0.0000
 6307OM     OM1 6307   5.484   1.379   1.139  0.0000  0.0000  0.0000
 6308OM     OM1 6308   5.459   1.157   0.981  0.0000  0.0000  0.0000
 6309OM     OM1 6309   2.136   3.406   8.503  0.0000  0.0000  0.0000
 6310OM     OM1 6310   2.215   3.267   8.293  0.0000  0.0000  0.0000
 6311OM     OM1 6311   6.691   7.167   0.017  0.0000  0.0000  0.0000
 6312OM     OM1 6312   6.815   7.197   9.389  0.0000  0.0000  0.0000
 6313OM     OM1 6313   6.623   7.365   9.455  0.0000  0.0000  0.0000
 6314OM     OM1 6314   6.269   5.874   1.338  0.0000  0.0000  0.0000
 6315OM     OM1 6315   6.431   6.066   1.298  0.0000  0.0000  0.0000
 6316OM     OM1 6316   5.330   6.721   0.140  0.0000  0.0000  0.0000
 6317OM     OM1 6317   5.325   6.501   0.003  0.0000  0.0000  0.0000
 6318OM     OM1 6318   5.508   6.532   0.165  0.0000  0.0000  0.0000
 6319OM     OM1 6319   4.337   8.239   9.116  0.0000  0.0000  0.0000
 6320OM     OM1 6320   4.483   8.398   8.953  0.0000  0.0000  0.0000
 6321OM     OM1 6321   4.262   8.273   8.872  0.0000  0.0000  0.0000
 6322OM     OM1 6322   4.488   8.143   8.935  0.0000  0.0000  0.0000
 6323OM     OM1 6323   9.475   2.470   9.429  0.0000  0.0000  0.0000
 6324OM     OM1 6324   9.423   2.641   9.233  0.0000  0.0000  0.0000
 6325OM     OM1 6325   8.100   8.238   0.768  0.0000  0.0000  0.0000
 6326OM     OM1 6326   7.949   8.068   0.641  0.0000  0.0000  0.0000
 6327OM     OM1 6327   8.171   8.124   0.535  0.0000  0.0000  0.0000
 6328OM     OM1 6328   2.608   7.729   0.941  0.0000  0.0000  0.0000
 6329OM     OM1 6329   2.447   7.579   0.800  0.0000  0.0000  0.0000
 6330OM     OM1 6330   2.688   7.502   0.823  0.0000  0.0000  0.0000
 6331OM     OM1 6331   8.092   8.957   9.562  0.0000  0.0000  0.0000
 6332OM     OM1 6332   8.126   8.769   9.392  0.0000  0.0000  0.0000
 6333OM     OM1 6333   8.337   8.879   9.528  0.0000  0.0000  0.0000
 6334OM     OM1 6334   8.232   8.995   9.339  0.0000  0.0000  0.0000
 6335OM     OM1 6335   2.003   5.849   8.273  0.0000  0.0000  0.0000
 6336OM     OM1 6336   6.161   1.754   0.682  0.0000  0.0000  0.0000
 6337OM     OM1 6337   6.362   1.602   0.630  0.0000  0.0000  0.0000
 6338OM     OM1 6338   5.564   1.725   0.696  0.0000  0.0000  0.0000
 6339OM     OM1 6339   5.576   1.552   0.503  0.0000  0.0000  0.0000
 6340OM     OM1 6340   9.587   5.991   0.797  0.0000  0.0000  0.0000
 6341OM     OM1 6341   9.430   5.971   1.009  0.0000  0.0000  0.0000
 6342OM     OM1 6342   9.572   5.761   0.922  0.0000  0.0000  0.0000
 6343OM     OM1 6343   1.142   3.987   8.718  0.0000  0.0000  0.0000
 6344OM     OM1 6344   1.114   4.127   8.928  0.0000  0.0000  0.0000
 6345OM     OM1 6345   1.066   3.773   8.850  0.0000  0.0000  0.0000
 6346OM     OM1 6346   2.177   1.297   0.522  0.0000  0.0000  0.0000
 6347OM     OM1 6347   2.057   1.083   0.455  0.0000  0.0000  0.0000
 6348OM     OM1 6348   2.117   1.119   0.705  0.0000  0.0000  0.0000
 6349OM     OM1 6349   1.925   1.264   0.600  0.0000  0.0000  0.0000
 6350OM     OM1 6350   7.589   8.398   8.238  0.0000  0.0000  0.0000
 6351OM     OM1 6351   7.507   8.634   8.314  0.0000  0.0000  0.0000
 6352OM     OM1 6352   6.873   5.554   9.033  0.0000  0.0000  0.0000
 6353OM     OM1 6353   6.995   5.329   8.982  0.0000  0.0000  0.0000
 6354OM     OM1 6354   6.819   9.500   9.345  0.0000  0.0000  0.0000
 6355OM     OM1 6355   6.761   9.260   9.422  0.0000  0.0000  0.0000
 6356OM     OM1 6356   6.797   9.122   8.978  0.0000  0.0000  0.0000
 6357OM     OM1 6357   5.235   8.881   0.096  0.0000  0.0000  0.0000
 6358OM     OM1 6358   1.706   7.634   0.224  0.0000  0.0000  0.0000
 6359OM     OM1 6359   1.826   7.581   0.456  0.0000  0.0000  0.0000
 6360OM     OM1 6360   0.931   4.315   8.952  0.0000  0.0000  0.0000
 6361OM     OM1 6361   0.890   4.283   8.645  0.0000  0.0000  0.0000
 6362OM     OM1 6362   1.046   4.540   8.932  0.0000  0.0000  0.0000
 6363OM     OM1 6363   0.830   4.486   8.784  0.0000  0.0000  0.0000
 6364OM     OM1 6364   6.122   5.047   8.396  0.0000  0.0000  0.0000
 6365OM     OM1 6365   5.920   5.155   8.533  0.0000  0.0000  0.0000
 6366OM     OM1 6366   5.889   4.921   8.431  0.0000  0.0000  0.0000
 6367OM     OM1 6367   6.059   4.940   8.619  0.0000  0.0000  0.0000
 6368OM     OM1 6368   3.619   7.991   8.665  0.0000  0.0000  0.0000
 6369OM     OM1 6369   3.691   8.226   8.615  0.0000  0.0000  0.0000
 6370OM     OM1 6370   3.768   8.111   8.853  0.0000  0.0000  0.0000
 6371OM     OM1 6371   7.386   6.831   9.057  0.0000  0.0000  0.0000
 6372OM     OM1 6372   7.569   7.019   9.038  0.0000  0.0000  0.0000
 6373OM     OM1 6373   7.484   6.886   8.825  0.0000  0.0000  0.0000
 6374OM     OM1 6374   6.526   7.586   9.559  0.0000  0.0000  0.0000
 6375OM     OM1 6375   6.762   7.581   9.455  0.0000  0.0000  0.0000
 6376OM     OM1 6376   3.349   5.152   0.897  0.0000  0.0000  0.0000
 6377OM     OM1 6377   3.103   5.228   0.857  0.0000  0.0000  0.0000
 6378OM     OM1 6378   7.151   8.361   8.416  0.0000  0.0000  0.0000
 6379OM     OM1 6379   7.220   8.522   8.228  0.0000  0.0000  0.0000
 6380OM     OM1 6380   7.349   8.296   8.262  0.0000  0.0000  0.0000
 6381OM     OM1 6381   4.555   1.112   0.242  0.0000  0.0000  0.0000
 6382OM     OM1 6382   5.472   0.508   8.376  0.0000  0.0000  0.0000
 6383OM     OM1 6383   1.749   5.432   8.275  0.0000  0.0000  0.0000
 6384OM     OM1 6384   1.943   5.603   8.289  0.0000  0.0000  0.0000
 6385OM     OM1 6385   7.200   3.499   8.312  0.0000  0.0000  0.0000
 6386OM     OM1 6386   7.268   3.735   8.232  0.0000  0.0000  0.0000
 6387OM     OM1 6387   4.259   2.493   0.252  0.0000  0.0000  0.0000
 6388OM     OM1 6388   4.311   2.335   0.052  0.0000  0.0000  0.0000
 6389OM     OM1 6389   4.500   2.499   0.121  0.0000  0.0000  0.0000
 6390OM     OM1 6390   4.434   2.302   0.275  0.0000  0.0000  0.0000
 6391OM     OM1 6391   9.371   1.004   0.034  0.0000  0.0000  0.0000
 6392OM     OM1 6392   9.551   0.890   9.501  0.0000  0.0000  0.0000
 6393OM     OM1 6393   9.450   1.107   9.405  0.0000  0.0000  0.0000
 6394OM     OM1 6394   9.294   0.902   9.412  0.0000  0.0000  0.0000
 6395OM     OM1 6395   5.087   0.609   1.134  0.0000  0.0000  0.0000
 6396OM     OM1 6396   5.269   0.549   1.296  0.0000  0.0000  0.0000
 6397OM     OM1 6397   5.140   0.354   1.179  0.0000  0.0000  0.0000
 6398OM     OM1 6398   1.453   5.840   9.547  0.0000  0.0000  0.0000
 6399OM     OM1 6399   1.667   5.781   9.414  0.0000  0.0000  0.0000
 6400OM     OM1 6400   1.266   5.653   0.005  0.0000  0.0000  0.0000
 6401OM     OM1 6401   8.578   8.650   8.826  0.0000  0.0000  0.0000
 6402OM     OM1 6402   8.195   8.553   8.960  0.0000  0.0000  0.0000
 6403OM     OM1 6403   8.185   8.624   8.725  0.0000  0.0000  0.0000
 6404OM     OM1 6404   7.496   8.857   8.462  0.0000  0.0000  0.0000
 6405OM     OM1 6405   7.519   9.122   8.513  0.0000  0.0000  0.0000
 6406OM     OM1 6406   7.726   8.961   8.512  0.0000  0.0000  0.0000
 6407OM     OM1 6407   1.789   3.470   8.645  0.0000  0.0000  0.0000
 6408OM     OM1 6408   1.586   3.308   8.667  0.0000  0.0000  0.0000
 6409OM     OM1 6409   0.053   0.822   0.125  0.0000  0.0000  0.0000
 6410OM     OM1 6410   5.850   8.919   0.557  0.0000  0.0000  0.0000
 6411OM     OM1 6411   5.664   8.882   0.380  0.0000  0.0000  0.0000
 6412OM     OM1 6412   7.203   2.322   8.957  0.0000  0.0000  0.0000
 6413OM     OM1 6413   7.223   2.440   8.724  0.0000  0.0000  0.0000
 6414OM     OM1 6414   7.439   2.400   8.866  0.0000  0.0000  0.0000
 6415OM     OM1 6415   7.646   2.378   8.417  0.0000  0.0000  0.0000
 6416OM     OM1 6416   2.050   0.567   1.016  0.0000  0.0000  0.0000
 6417OM     OM1 6417   2.333   0.314   1.184  0.0000  0.0000  0.0000
 6418OM     OM1 6418   2.269   0.428   0.965  0.0000  0.0000  0.0000
 6419OM     OM1 6419   0.870   1.566   0.059  0.0000  0.0000  0.0000
 6420OM     OM1 6420   0.804   1.671   9.425  0.0000  0.0000  0.0000
 6421OM     OM1 6421   0.991   3.755   9.396  0.0000  0.0000  0.0000
 6422OM     OM1 6422   1.243   3.755   9.352  0.0000  0.0000  0.0000
 6423OM     OM1 6423   2.226   4.956   8.431  0.0000  0.0000  0.0000
 6424OM     OM1 6424   6.303   2.369   1.041  0.0000  0.0000  0.0000
 6425OM     OM1 6425   6.070   2.397   1.156  0.0000  0.0000  0.0000
 6426OM     OM1 6426   6.085   2.233   0.960  0.0000  0.0000  0.0000
 6427OM     OM1 6427   6.211   2.189   1.196  0.0000  0.0000  0.0000
 6428OM     OM1 6428   2.649   9.221   9.291  0.0000  0.0000  0.0000
 6429OM     OM1 6429   2.697   9.025   9.442  0.0000  0.0000  0.0000
 6430OM     OM1 6430   8.099   7.645   0.343  0.0000  0.0000  0.0000
 6431OM     OM1 6431   8.209   7.859   0.463  0.0000  0.0000  0.0000
 6432OM     OM1 6432   3.500   9.045   0.171  0.0000  0.0000  0.0000
 6433OM     OM1 6433   3.321   9.231   0.169  0.0000  0.0000  0.0000
 6434OM     OM1 6434   7.800   8.782   8.684  0.0000  0.0000  0.0000
 6435OM     OM1 6435   7.975   8.949   8.595  0.0000  0.0000  0.0000
 6436OM     OM1 6436   7.779   9.040   8.748  0.0000  0.0000  0.0000
 6437OM     OM1 6437   8.236   8.934   8.542  0.0000  0.0000  0.0000
 6438OM     OM1 6438   6.010   5.174   9.346  0.0000  0.0000  0.0000
 6439OM     OM1 6439   5.910   5.384   9.227  0.0000  0.0000  0.0000
 6440OM     OM1 6440   7.077   2.791   8.262  0.0000  0.0000  0.0000
 6441OM     OM1 6441   7.180   2.991   8.402  0.0000  0.0000  0.0000
 6442OM     OM1 6442   6.994   2.850   8.503  0.0000  0.0000  0.0000
 6443OM     OM1 6443   6.199   8.420   1.000  0.0000  0.0000  0.0000
 6444OM     OM1 6444   6.146   8.612   0.821  0.0000  0.0000  0.0000
 6445OM     OM1 6445   6.232   8.362   0.750  0.0000  0.0000  0.0000
 6446OM     OM1 6446   5.995   8.404   0.832  0.0000  0.0000  0.0000
 6447OM     OM1 6447   1.291   6.391   1.001  0.0000  0.0000  0.0000
 6448OM     OM1 6448   1.138   6.409   1.207  0.0000  0.0000  0.0000
 6449OM     OM1 6449   1.400   6.338   1.218  0.0000  0.0000  0.0000
 6450OM     OM1 6450   6.403   3.130   0.894  0.0000  0.0000  0.0000
 6451OM     OM1 6451   6.598   3.190   1.069  0.0000  0.0000  0.0000
 6452OM     OM1 6452   6.386   3.323   1.067  0.0000  0.0000  0.0000
 6453OM     OM1 6453   3.360   5.849   8.878  0.0000  0.0000  0.0000
 6454OM     OM1 6454   3.402   6.091   8.839  0.0000  0.0000  0.0000
 6455OM     OM1 6455   3.612   5.947   8.886  0.0000  0.0000  0.0000
 6456OM     OM1 6456   1.746   2.325   0.447  0.0000  0.0000  0.0000
 6457OM     OM1 6457   1.722   2.590   0.486  0.0000  0.0000  0.0000
 6458OM     OM1 6458   1.523   2.416   0.535  0.0000  0.0000  0.0000
 6459OM     OM1 6459   1.744   2.427   0.682  0.0000  0.0000  0.0000
 6460OM     OM1 6460   4.027   0.841   8.712  0.0000  0.0000  0.0000
 6461OM     OM1 6461   3.894   0.719   8.882  0.0000  0.0000  0.0000
 6462OM     OM1 6462   4.140   0.813   8.949  0.0000  0.0000  0.0000
 6463OM     OM1 6463   4.108   0.607   8.802  0.0000  0.0000  0.0000
 6464OM     OM1 6464   3.160   2.612   0.664  0.0000  0.0000  0.0000
 6465OM     OM1 6465   3.314   2.453   0.498  0.0000  0.0000  0.0000
 6466OM     OM1 6466   3.168   2.642   0.420  0.0000  0.0000  0.0000
 6467OM     OM1 6467   7.694   3.654   8.451  0.0000  0.0000  0.0000
 6468OM     OM1 6468   7.053   3.151   9.292  0.0000  0.0000  0.0000
 6469OM     OM1 6469   6.950   2.865   9.069  0.0000  0.0000  0.0000
 6470OM     OM1 6470   7.135   2.974   9.465  0.0000  0.0000  0.0000
 6471OM     OM1 6471   7.121   6.432   9.108  0.0000  0.0000  0.0000
 6472OM     OM1 6472   6.932   6.296   9.227  0.0000  0.0000  0.0000
 6473OM     OM1 6473   3.706   7.309   0.708  0.0000  0.0000  0.0000
 6474OM     OM1 6474   3.859   7.432   0.870  0.0000  0.0000  0.0000
 6475OM     OM1 6475   3.593   7.467   0.894  0.0000  0.0000  0.0000
 6476OM     OM1 6476   4.991   2.759   9.466  0.0000  0.0000  0.0000
 6477OM     OM1 6477   4.810   2.921   9.394  0.0000  0.0000  0.0000
 6478OM     OM1 6478   4.936   2.973   0.016  0.0000  0.0000  0.0000
 6479OM     OM1 6479   2.833   6.590   9.522  0.0000  0.0000  0.0000
 6480OM     OM1 6480   3.035   9.530   1.042  0.0000  0.0000  0.0000
 6481OM     OM1 6481   3.056   9.272   1.058  0.0000  0.0000  0.0000
 6482OM     OM1 6482   2.922   9.367   0.864  0.0000  0.0000  0.0000
 6483OM     OM1 6483   1.678   6.531   9.267  0.0000  0.0000  0.0000
 6484OM     OM1 6484   1.864   6.359   9.277  0.0000  0.0000  0.0000
 6485OM     OM1 6485   1.916   6.624   9.237  0.0000  0.0000  0.0000
 6486OM     OM1 6486   1.462   8.415   1.303  0.0000  0.0000  0.0000
 6487OM     OM1 6487   1.413   8.285   1.085  0.0000  0.0000  0.0000
 6488OM     OM1 6488   1.643   8.183   1.124  0.0000  0.0000  0.0000
 6489OM     OM1 6489   6.567   6.605   8.416  0.0000  0.0000  0.0000
 6490OM     OM1 6490   5.094   2.246   0.989  0.0000  0.0000  0.0000
 6491OM     OM1 6491   4.854   2.343   0.949  0.0000  0.0000  0.0000
 6492OM     OM1 6492   4.947   1.998   1.301  0.0000  0.0000  0.0000
 6493OM     OM1 6493   7.546   3.611   0.812  0.0000  0.0000  0.0000
 6494OM     OM1 6494   7.503   3.698   1.052  0.0000  0.0000  0.0000
 6495OM     OM1 6495   7.660   3.836   0.911  0.0000  0.0000  0.0000
 6496OM     OM1 6496   7.742   3.608   0.993  0.0000  0.0000  0.0000
 6497OM     OM1 6497   3.451   8.795   8.478  0.0000  0.0000  0.0000
 6498OM     OM1 6498   3.608   8.993   8.552  0.0000  0.0000  0.0000
 6499OM     OM1 6499   3.402   8.903   8.703  0.0000  0.0000  0.0000
 6500OM     OM1 6500   3.367   9.048   8.491  0.0000  0.0000  0.0000
 6501OM     OM1 6501   6.752   0.855   8.766  0.0000  0.0000  0.0000
 6502OM     OM1 6502   6.515   0.932   8.838  0.0000  0.0000  0.0000
 6503OM     OM1 6503   4.922   9.065   0.511  0.0000  0.0000  0.0000
 6504OM     OM1 6504   5.108   8.890   0.471  0.0000  0.0000  0.0000
 6505OM     OM1 6505   7.314   4.636   9.433  0.0000  0.0000  0.0000
 6506OM     OM1 6506   7.554   4.733   9.353  0.0000  0.0000  0.0000
 6507OM     OM1 6507   8.220   0.381   8.607  0.0000  0.0000  0.0000
 6508OM     OM1 6508   0.720   2.463   9.099  0.0000  0.0000  0.0000
 6509OM     OM1 6509   0.830   2.338   9.296  0.0000  0.0000  0.0000
 6510OM     OM1 6510   0.602   2.459   9.327  0.0000  0.0000  0.0000
 6511OM     OM1 6511   0.830   2.595   9.305  0.0000  0.0000  0.0000
 6512OM     OM1 6512   3.980   8.110   0.307  0.0000  0.0000  0.0000
 6513OM     OM1 6513   1.927   9.318   0.844  0.0000  0.0000  0.0000
 6514OM     OM1 6514   2.159   9.259   0.971  0.0000  0.0000  0.0000
 6515OM     OM1 6515   5.134   6.061   1.128  0.0000  0.0000  0.0000
 6516OM     OM1 6516   5.105   6.048   0.880  0.0000  0.0000  0.0000
 6517OM     OM1 6517   2.213   1.133   8.357  0.0000  0.0000  0.0000
 6518OM     OM1 6518   2.100   1.268   8.551  0.0000  0.0000  0.0000
 6519OM     OM1 6519   2.462   1.110   8.289  0.0000  0.0000  0.0000
 6520OM     OM1 6520   6.656   6.656   0.132  0.0000  0.0000  0.0000
 6521OM     OM1 6521   6.786   6.676   9.516  0.0000  0.0000  0.0000
 6522OM     OM1 6522   7.098   2.387   1.047  0.0000  0.0000  0.0000
 6523OM     OM1 6523   7.108   2.141   0.924  0.0000  0.0000  0.0000
 6524OM     OM1 6524   6.906   2.298   0.909  0.0000  0.0000  0.0000
 6525OM     OM1 6525   0.702   4.673   8.369  0.0000  0.0000  0.0000
 6526OM     OM1 6526   6.953   0.374   1.157  0.0000  0.0000  0.0000
 6527OM     OM1 6527   0.813   5.667   9.256  0.0000  0.0000  0.0000
 6528OM     OM1 6528   0.698   5.631   9.024  0.0000  0.0000  0.0000
 6529OM     OM1 6529   0.621   5.821   9.172  0.0000  0.0000  0.0000
 6530OM     OM1 6530   6.646   5.660   9.075  0.0000  0.0000  0.0000
 6531OM     OM1 6531   6.491   5.860   9.102  0.0000  0.0000  0.0000
 6532OM     OM1 6532   6.778   2.382   8.538  0.0000  0.0000  0.0000
 6533OM     OM1 6533   6.869   2.164   8.442  0.0000  0.0000  0.0000
 6534OM     OM1 6534   6.956   2.234   8.672  0.0000  0.0000  0.0000
 6535OM     OM1 6535   7.025   2.374   8.461  0.0000  0.0000  0.0000
 6536OM     OM1 6536   0.219   1.641   0.589  0.0000  0.0000  0.0000
 6537OM     OM1 6537   0.172   1.426   0.739  0.0000  0.0000  0.0000
 6538OM     OM1 6538   8.794   4.837   1.301  0.0000  0.0000  0.0000
 6539OM     OM1 6539   8.849   4.636   1.139  0.0000  0.0000  0.0000
 6540OM     OM1 6540   3.311   3.162   9.444  0.0000  0.0000  0.0000
 6541OM     OM1 6541   3.242   3.214   9.195  0.0000  0.0000  0.0000
 6542OM     OM1 6542   3.501   3.208   9.267  0.0000  0.0000  0.0000
 6543OM     OM1 6543   3.349   3.402   9.331  0.0000  0.0000  0.0000
 6544OM     OM1 6544   0.092   3.793   0.668  0.0000  0.0000  0.0000
 6545OM     OM1 6545   0.061   3.998   0.530  0.0000  0.0000  0.0000
 6546OM     OM1 6546   0.279   4.010   0.663  0.0000  0.0000  0.0000
 6547OM     OM1 6547   4.984   7.663   8.581  0.0000  0.0000  0.0000
 6548OM     OM1 6548   4.776   7.776   8.676  0.0000  0.0000  0.0000
 6549OM     OM1 6549   5.002   7.919   8.638  0.0000  0.0000  0.0000
 6550OM     OM1 6550   5.060   5.992   0.110  0.0000  0.0000  0.0000
 6551OM     OM1 6551   5.175   6.199   0.203  0.0000  0.0000  0.0000
 6552OM     OM1 6552   4.973   6.182   0.368  0.0000  0.0000  0.0000
 6553OM     OM1 6553   3.129   5.790   9.440  0.0000  0.0000  0.0000
 6554OM     OM1 6554   2.974   5.719   0.040  0.0000  0.0000  0.0000
 6555OM     OM1 6555   0.138   8.667   0.671  0.0000  0.0000  0.0000
 6556OM     OM1 6556   6.299   0.394   1.029  0.0000  0.0000  0.0000
 6557OM     OM1 6557   6.116   0.205   1.098  0.0000  0.0000  0.0000
 6558OM     OM1 6558   8.047   1.047   1.317  0.0000  0.0000  0.0000
 6559OM     OM1 6559   7.423   8.542   0.803  0.0000  0.0000  0.0000
 6560OM     OM1 6560   7.466   8.602   1.052  0.0000  0.0000  0.0000
 6561OM     OM1 6561   7.472   8.349   0.986  0.0000  0.0000  0.0000
 6562OM     OM1 6562   7.660   8.509   0.905  0.0000  0.0000  0.0000
 6563OM     OM1 6563   2.076   3.036   0.847  0.0000  0.0000  0.0000
 6564OM     OM1 6564   2.319   2.951   0.793  0.0000  0.0000  0.0000
 6565OM     OM1 6565   2.114   2.835   0.685  0.0000  0.0000  0.0000
 6566OM     OM1 6566   2.532   3.230   8.526  0.0000  0.0000  0.0000
 6567OM     OM1 6567   2.675   3.053   8.388  0.0000  0.0000  0.0000
 6568OM     OM1 6568   2.414   3.108   8.330  0.0000  0.0000  0.0000
 6569OM     OM1 6569   2.429   1.643   1.200  0.0000  0.0000  0.0000
 6570OM     OM1 6570   2.678   1.722   1.131  0.0000  0.0000  0.0000
 6571OM     OM1 6571   6.322   1.119   0.861  0.0000  0.0000  0.0000
 6572OM     OM1 6572   1.445   7.415   8.292  0.0000  0.0000  0.0000
 6573OM     OM1 6573   1.421   7.253   8.506  0.0000  0.0000  0.0000
 6574OM     OM1 6574   1.594   7.645   8.347  0.0000  0.0000  0.0000
 6575OM     OM1 6575   2.548   9.482   0.540  0.0000  0.0000  0.0000
 6576OM     OM1 6576   2.484   0.019   0.329  0.0000  0.0000  0.0000
 6577OM     OM1 6577   2.704   0.068   0.452  0.0000  0.0000  0.0000
 6578OM     OM1 6578   9.542   5.138   8.918  0.0000  0.0000  0.0000
 6579OM     OM1 6579   0.002   5.362   9.025  0.0000  0.0000  0.0000
 6580OM     OM1 6580   0.181   5.200   8.923  0.0000  0.0000  0.0000
 6581OM     OM1 6581   7.918   8.229   8.339  0.0000  0.0000  0.0000
 6582OM     OM1 6582   8.550   9.160   8.826  0.0000  0.0000  0.0000
 6583OM     OM1 6583   8.702   9.077   9.019  0.0000  0.0000  0.0000
 6584OM     OM1 6584   8.766   9.015   8.784  0.0000  0.0000  0.0000
 6585OM     OM1 6585   8.556   8.903   8.881  0.0000  0.0000  0.0000
 6586OM     OM1 6586   4.529   6.197   0.193  0.0000  0.0000  0.0000
 6587OM     OM1 6587   4.726   6.283   0.345  0.0000  0.0000  0.0000
 6588OM     OM1 6588   6.034   5.553   0.588  0.0000  0.0000  0.0000
 6589OM     OM1 6589   6.177   5.615   0.792  0.0000  0.0000  0.0000
 6590OM     OM1 6590   6.014   5.650   0.983  0.0000  0.0000  0.0000
 6591OM     OM1 6591   6.143   5.860   0.903  0.0000  0.0000  0.0000
 6592OM     OM1 6592   2.355   8.968   0.738  0.0000  0.0000  0.0000
 6593OM     OM1 6593   2.361   8.735   0.835  0.0000  0.0000  0.0000
 6594OM     OM1 6594   0.259   0.641   1.202  0.0000  0.0000  0.0000
 6595OM     OM1 6595   0.015   0.556   1.214  0.0000  0.0000  0.0000
 6596OM     OM1 6596   0.177   0.475   1.017  0.0000  0.0000  0.0000
 6597OM     OM1 6597   0.920   4.356   0.037  0.0000  0.0000  0.0000
 6598OM     OM1 6598   0.910   4.627   0.049  0.0000  0.0000  0.0000
 6599OM     OM1 6599   1.030   4.495   0.225  0.0000  0.0000  0.0000
 6600OM     OM1 6600   7.346   8.822   1.143  0.0000  0.0000  0.0000
 6601OM     OM1 6601   7.605   8.805   1.141  0.0000  0.0000  0.0000
 6602OM     OM1 6602   3.611   1.785   9.435  0.0000  0.0000  0.0000
 6603OM     OM1 6603   3.677   1.660   0.039  0.0000  0.0000  0.0000
 6604OM     OM1 6604   3.439   1.769   0.029  0.0000  0.0000  0.0000
 6605OM     OM1 6605   3.500   1.555   9.489  0.0000  0.0000  0.0000
 6606OM     OM1 6606   2.936   6.830   0.501  0.0000  0.0000  0.0000
 6607OM     OM1 6607   2.822   7.071   0.573  0.0000  0.0000  0.0000
 6608OM     OM1 6608   3.737   1.041   9.078  0.0000  0.0000  0.0000
 6609OM     OM1 6609   3.634   0.850   9.234  0.0000  0.0000  0.0000
 6610OM     OM1 6610   3.872   0.827   9.145  0.0000  0.0000  0.0000
 6611OM     OM1 6611   3.676   0.807   8.982  0.0000  0.0000  0.0000
 6612OM     OM1 6612   0.872   2.603   0.767  0.0000  0.0000  0.0000
 6613OM     OM1 6613   0.979   2.427   0.928  0.0000  0.0000  0.0000
 6614OM     OM1 6614   1.072   2.653   0.940  0.0000  0.0000  0.0000
 6615OM     OM1 6615   6.142   5.687   1.247  0.0000  0.0000  0.0000
 6616OM     OM1 6616   6.269   5.670   1.033  0.0000  0.0000  0.0000
 6617OM     OM1 6617   6.215   5.455   1.171  0.0000  0.0000  0.0000
 6618OM     OM1 6618   9.169   6.846   0.178  0.0000  0.0000  0.0000
 6619OM     OM1 6619   9.082   7.081   0.233  0.0000  0.0000  0.0000
 6620OM     OM1 6620   0.730   0.876   8.789  0.0000  0.0000  0.0000
 6621OM     OM1 6621   0.715   0.926   8.529  0.0000  0.0000  0.0000
 6622OM     OM1 6622   0.657   1.068   8.930  0.0000  0.0000  0.0000
 6623OM     OM1 6623   7.179   7.210   0.692  0.0000  0.0000  0.0000
 6624OM     OM1 6624   7.162   7.336   0.456  0.0000  0.0000  0.0000
 6625OM     OM1 6625   7.809   3.852   9.010  0.0000  0.0000  0.0000
 6626OM     OM1 6626   7.917   4.089   8.976  0.0000  0.0000  0.0000
 6627OM     OM1 6627   7.681   4.045   8.881  0.0000  0.0000  0.0000
 6628OM     OM1 6628   7.714   4.063   9.137  0.0000  0.0000  0.0000
 6629OM     OM1 6629   3.784   3.293   0.257  0.0000  0.0000  0.0000
 6630OM     OM1 6630   3.688   3.135   0.088  0.0000  0.0000  0.0000
 6631OM     OM1 6631   3.240   5.714   8.696  0.0000  0.0000  0.0000
 6632OM     OM1 6632   3.311   5.573   8.487  0.0000  0.0000  0.0000
 6633OM     OM1 6633   2.566   9.236   8.803  0.0000  0.0000  0.0000
 6634OM     OM1 6634   2.583   8.982   8.773  0.0000  0.0000  0.0000
 6635OM     OM1 6635   2.479   9.066   8.992  0.0000  0.0000  0.0000
 6636OM     OM1 6636   4.409   6.697   1.072  0.0000  0.0000  0.0000
 6637OM     OM1 6637   4.298   6.505   0.926  0.0000  0.0000  0.0000
 6638OM     OM1 6638   4.254   6.515   1.182  0.0000  0.0000  0.0000
 6639OM     OM1 6639   1.069   6.732   8.290  0.0000  0.0000  0.0000
 6640OM     OM1 6640   4.362   3.542   1.026  0.0000  0.0000  0.0000
 6641OM     OM1 6641   4.245   3.306   1.057  0.0000  0.0000  0.0000
 6642OM     OM1 6642   4.288   3.469   1.267  0.0000  0.0000  0.0000
 6643OM     OM1 6643   1.265   6.037   8.306  0.0000  0.0000  0.0000
 6644OM     OM1 6644   4.899   0.020   8.449  0.0000  0.0000  0.0000
 6645OM     OM1 6645   5.129   0.116   8.518  0.0000  0.0000  0.0000
 6646OM     OM1 6646   4.971   0.243   8.339  0.0000  0.0000  0.0000
 6647OM     OM1 6647   6.171   9.559   1.085  0.0000  0.0000  0.0000
 6648OM     OM1 6648   4.616   1.519   8.435  0.0000  0.0000  0.0000
 6649OM     OM1 6649   4.384   1.602   8.375  0.0000  0.0000  0.0000
 6650OM     OM1 6650   4.583   1.756   8.311  0.0000  0.0000  0.0000
 6651OM     OM1 6651   2.518   2.812   0.436  0.0000  0.0000  0.0000
 6652OM     OM1 6652   2.630   2.601   0.320  0.0000  0.0000  0.0000
 6653OM     OM1 6653   2.376   2.601   0.377  0.0000  0.0000  0.0000
 6654OM     OM1 6654   2.473   2.756   0.189  0.0000  0.0000  0.0000
 6655OM     OM1 6655   3.288   2.950   8.575  0.0000  0.0000  0.0000
 6656OM     OM1 6656   3.265   2.704   8.664  0.0000  0.0000  0.0000
 6657OM     OM1 6657   3.324   2.910   8.824  0.0000  0.0000  0.0000
 6658OM     OM1 6658   1.522   5.324   8.272  0.0000  0.0000  0.0000
 6659OM     OM1 6659   6.724   2.132   0.111  0.0000  0.0000  0.0000
 6660OM     OM1 6660   6.518   2.287   0.184  0.0000  0.0000  0.0000
 6661OM     OM1 6661   6.691   2.203   0.353  0.0000  0.0000  0.0000
 6662OM     OM1 6662   5.188   3.305   0.266  0.0000  0.0000  0.0000
 6663OM     OM1 6663   5.184   3.327   0.546  0.0000  0.0000  0.0000
 6664OM     OM1 6664   7.093   2.531   8.261  0.0000  0.0000  0.0000
 6665OM     OM1 6665   7.242   2.507   8.475  0.0000  0.0000  0.0000
 6666OM     OM1 6666   3.493   6.272   8.338  0.0000  0.0000  0.0000
 6667OM     OM1 6667   3.444   6.200   8.596  0.0000  0.0000  0.0000
 6668OM     OM1 6668   2.730   1.601   9.134  0.0000  0.0000  0.0000
 6669OM     OM1 6669   2.945   1.648   9.275  0.0000  0.0000  0.0000
 6670OM     OM1 6670   2.913   1.762   9.044  0.0000  0.0000  0.0000
 6671OM     OM1 6671   1.675   2.834   0.554  0.0000  0.0000  0.0000
 6672OM     OM1 6672   1.920   2.769   0.519  0.0000  0.0000  0.0000
 6673OM     OM1 6673   1.034   5.244   0.681  0.0000  0.0000  0.0000
 6674OM     OM1 6674   1.236   5.298   0.824  0.0000  0.0000  0.0000
 6675OM     OM1 6675   1.106   5.064   0.857  0.0000  0.0000  0.0000
 6676OM     OM1 6676   8.643   4.534   0.305  0.0000  0.0000  0.0000
 6677OM     OM1 6677   8.618   4.267   0.294  0.0000  0.0000  0.0000
 6678OM     OM1 6678   8.786   4.410   0.138  0.0000  0.0000  0.0000
 6679OM     OM1 6679   3.238   6.680   8.649  0.0000  0.0000  0.0000
 6680OM     OM1 6680   3.488   6.637   8.671  0.0000  0.0000  0.0000
 6681OM     OM1 6681   3.313   6.557   8.860  0.0000  0.0000  0.0000
 6682OM     OM1 6682   3.378   6.806   8.832  0.0000  0.0000  0.0000
 6683OM     OM1 6683   3.742   3.526   0.912  0.0000  0.0000  0.0000
 6684OM     OM1 6684   0.871   8.969   9.456  0.0000  0.0000  0.0000
 6685OM     OM1 6685   7.690   3.615   8.974  0.0000  0.0000  0.0000
 6686OM     OM1 6686   7.608   3.412   9.097  0.0000  0.0000  0.0000
 6687OM     OM1 6687   0.365   0.127   9.334  0.0000  0.0000  0.0000
 6688OM     OM1 6688   4.529   7.877   9.411  0.0000  0.0000  0.0000
 6689OM     OM1 6689   4.363   7.744   9.258  0.0000  0.0000  0.0000
 6690OM     OM1 6690   4.388   8.009   9.241  0.0000  0.0000  0.0000
 6691OM     OM1 6691   9.058   9.479   1.120  0.0000  0.0000  0.0000
 6692OM     OM1 6692   8.935   9.324   0.957  0.0000  0.0000  0.0000
 6693OM     OM1 6693   9.000   9.579   0.891  0.0000  0.0000  0.0000
 6694OM     OM1 6694   8.799   9.513   1.042  0.0000  0.0000  0.0000
 6695OM     OM1 6695   2.404   4.751   0.998  0.0000  0.0000  0.0000
 6696OM     OM1 6696   2.535   4.605   0.823  0.0000  0.0000  0.0000
 6697OM     OM1 6697   2.289   4.531   0.907  0.0000  0.0000  0.0000
 6698OM     OM1 6698   2.495   4.515   1.063  0.0000  0.0000  0.0000
 6699OM     OM1 6699   1.166   0.813   0.508  0.0000  0.0000  0.0000
 6700OM     OM1 6700   0.911   0.803   0.447  0.0000  0.0000  0.0000
 6701OM     OM1 6701   1.021   1.020   0.559  0.0000  0.0000  0.0000
 6702OM     OM1 6702   0.977   0.810   0.697  0.0000  0.0000  0.0000
 6703OM     OM1 6703   3.293   7.373   0.062  0.0000  0.0000  0.0000
 6704OM     OM1 6704   3.338   7.579   0.213  0.0000  0.0000  0.0000
 6705OM     OM1 6705   3.437   2.199   0.962  0.0000  0.0000  0.0000
 6706OM     OM1 6706   3.215   2.194   0.823  0.0000  0.0000  0.0000
 6707OM     OM1 6707   3.185   4.509   0.519  0.0000  0.0000  0.0000
 6708OM     OM1 6708   3.087   4.286   0.618  0.0000  0.0000  0.0000
 6709OM     OM1 6709   0.677   3.190   1.094  0.0000  0.0000  0.0000
 6710OM     OM1 6710   0.562   2.979   1.022  0.0000  0.0000  0.0000
 6711OM     OM1 6711   7.353   2.386   9.356  0.0000  0.0000  0.0000
 6712OM     OM1 6712   9.210   2.314   8.962  0.0000  0.0000  0.0000
 6713OM     OM1 6713   9.046   2.445   9.116  0.0000  0.0000  0.0000
 6714OM     OM1 6714   9.002   2.196   9.082  0.0000  0.0000  0.0000
 6715OM     OM1 6715   9.212   2.265   9.223  0.0000  0.0000  0.0000
 6716OM     OM1 6716   7.453   3.632   0.060  0.0000  0.0000  0.0000
 6717OM     OM1 6717   6.501   0.385   0.456  0.0000  0.0000  0.0000
 6718OM     OM1 6718   6.727   0.377   0.586  0.0000  0.0000  0.0000
 6719OM     OM1 6719   6.594   0.157   0.554  0.0000  0.0000  0.0000
 6720OM     OM1 6720   6.716   0.274   0.352  0.0000  0.0000  0.0000
 6721OM     OM1 6721   4.889   4.776   8.412  0.0000  0.0000  0.0000
 6722OM     OM1 6722   4.692   4.957   8.411  0.0000  0.0000  0.0000
 6723OM     OM1 6723   4.682   4.734   8.559  0.0000  0.0000  0.0000
 6724OM     OM1 6724   2.524   8.610   0.675  0.0000  0.0000  0.0000
 6725OM     OM1 6725   7.325   7.492   8.386  0.0000  0.0000  0.0000
 6726OM     OM1 6726   3.095   7.778   8.375  0.0000  0.0000  0.0000
 6727OM     OM1 6727   4.684   6.074   9.321  0.0000  0.0000  0.0000
 6728OM     OM1 6728   4.812   5.872   9.420  0.0000  0.0000  0.0000
 6729OM     OM1 6729   2.742   1.566   0.582  0.0000  0.0000  0.0000
 6730OM     OM1 6730   2.599   1.373   0.704  0.0000  0.0000  0.0000
 6731OM     OM1 6731   2.833   1.326   0.616  0.0000  0.0000  0.0000
 6732OM     OM1 6732   3.320   0.948   0.866  0.0000  0.0000  0.0000
 6733OM     OM1 6733   3.155   0.921   1.074  0.0000  0.0000  0.0000
 6734OM     OM1 6734   6.894   6.057   8.443  0.0000  0.0000  0.0000
 6735OM     OM1 6735   7.096   5.904   8.344  0.0000  0.0000  0.0000
 6736OM     OM1 6736   3.877   8.796   0.988  0.0000  0.0000  0.0000
 6737OM     OM1 6737   4.082   9.079   1.292  0.0000  0.0000  0.0000
 6738OM     OM1 6738   8.267   1.220   0.167  0.0000  0.0000  0.0000
 6739OM     OM1 6739   8.516   1.286   0.166  0.0000  0.0000  0.0000
 6740OM     OM1 6740   8.420   1.212   9.548  0.0000  0.0000  0.0000
 6741OM     OM1 6741   1.566   5.925   1.296  0.0000  0.0000  0.0000
 6742OM     OM1 6742   1.507   6.120   1.125  0.0000  0.0000  0.0000
 6743OM     OM1 6743   3.147   7.430   0.740  0.0000  0.0000  0.0000
 6744OM     OM1 6744   3.374   7.347   0.827  0.0000  0.0000  0.0000
 6745OM     OM1 6745   3.297   7.281   0.581  0.0000  0.0000  0.0000
 6746OM     OM1 6746   7.162   2.601   1.184  0.0000  0.0000  0.0000
 6747OM     OM1 6747   7.242   2.555   0.920  0.0000  0.0000  0.0000
 6748OM     OM1 6748   1.774   6.968   0.818  0.0000  0.0000  0.0000
 6749OM     OM1 6749   1.735   6.728   0.760  0.0000  0.0000  0.0000
 6750OM     OM1 6750   1.751   6.789   1.010  0.0000  0.0000  0.0000
 6751OM     OM1 6751   1.535   6.863   0.888  0.0000  0.0000  0.0000
 6752OM     OM1 6752   0.099   5.154   0.326  0.0000  0.0000  0.0000
 6753OM     OM1 6753   0.082   5.213   0.585  0.0000  0.0000  0.0000
 6754OM     OM1 6754   0.135   5.399   0.409  0.0000  0.0000  0.0000
 6755OM     OM1 6755   9.507   5.295   0.407  0.0000  0.0000  0.0000
 6756OM     OM1 6756   8.383   4.462   1.146  0.0000  0.0000  0.0000
 6757OM     OM1 6757   8.636   4.480   1.125  0.0000  0.0000  0.0000
 6758OM     OM1 6758   6.551   7.751   0.909  0.0000  0.0000  0.0000
 6759OM     OM1 6759   6.997   9.452   1.030  0.0000  0.0000  0.0000
 6760OM     OM1 6760   6.849   9.425   0.828  0.0000  0.0000  0.0000
 6761OM     OM1 6761   6.989   0.043   0.849  0.0000  0.0000  0.0000
 6762OM     OM1 6762   1.582   7.138   9.243  0.0000  0.0000  0.0000
 6763OM     OM1 6763   1.490   6.915   9.124  0.0000  0.0000  0.0000
 6764OM     OM1 6764   1.382   7.009   9.449  0.0000  0.0000  0.0000
 6765OM     OM1 6765   1.851   3.668   8.801  0.0000  0.0000  0.0000
 6766OM     OM1 6766   2.304   3.750   8.869  0.0000  0.0000  0.0000
 6767OM     OM1 6767   2.073   3.643   8.909  0.0000  0.0000  0.0000
 6768OM     OM1 6768   3.619   4.550   0.831  0.0000  0.0000  0.0000
 6769OM     OM1 6769   3.419   4.545   0.638  0.0000  0.0000  0.0000
 6770OM     OM1 6770   3.634   4.672   0.598  0.0000  0.0000  0.0000
 6771OM     OM1 6771   1.762   6.813   8.928  0.0000  0.0000  0.0000
 6772OM     OM1 6772   1.619   6.816   8.716  0.0000  0.0000  0.0000
 6773OM     OM1 6773   1.516   6.735   8.946  0.0000  0.0000  0.0000
 6774OM     OM1 6774   2.216   7.096   0.622  0.0000  0.0000  0.0000
 6775OM     OM1 6775   2.044   7.006   0.800  0.0000  0.0000  0.0000
 6776OM     OM1 6776   2.254   6.865   0.760  0.0000  0.0000  0.0000
 6777OM     OM1 6777   1.407   5.776   0.184  0.0000  0.0000  0.0000
 6778OM     OM1 6778   1.694   5.864   0.054  0.0000  0.0000  0.0000
 6779OM     OM1 6779   1.515   5.603   0.014  0.0000  0.0000  0.0000
 6780OM     OM1 6780   5.161   6.520   9.149  0.0000  0.0000  0.0000
 6781OM     OM1 6781   5.214   6.378   8.942  0.0000  0.0000  0.0000
 6782OM     OM1 6782   5.066   6.173   8.994  0.0000  0.0000  0.0000
 6783OM     OM1 6783   1.089   1.986   1.176  0.0000  0.0000  0.0000
 6784OM     OM1 6784   1.286   1.818   1.178  0.0000  0.0000  0.0000
 6785OM     OM1 6785   0.860   9.269   0.238  0.0000  0.0000  0.0000
 6786OM     OM1 6786   0.599   9.433   0.314  0.0000  0.0000  0.0000
 6787OM     OM1 6787   0.985   9.489   0.359  0.0000  0.0000  0.0000
 6788OM     OM1 6788   7.790   9.146   0.161  0.0000  0.0000  0.0000
 6789OM     OM1 6789   7.647   9.272   0.334  0.0000  0.0000  0.0000
 6790OM     OM1 6790   7.598   9.019   0.292  0.0000  0.0000  0.0000
 6791OM     OM1 6791   8.042   7.037   0.350  0.0000  0.0000  0.0000
 6792OM     OM1 6792   7.865   6.981   0.150  0.0000  0.0000  0.0000
 6793OM     OM1 6793   8.037   6.811   0.219  0.0000  0.0000  0.0000
 6794OM     OM1 6794   2.472   0.409   0.573  0.0000  0.0000  0.0000
 6795OM     OM1 6795   2.519   0.360   0.998  0.0000  0.0000  0.0000
 6796OM     OM1 6796   1.365   1.519   0.237  0.0000  0.0000  0.0000
 6797OM     OM1 6797   1.257   1.728   0.328  0.0000  0.0000  0.0000
 6798OM     OM1 6798   1.472   6.870   0.578  0.0000  0.0000  0.0000
 6799OM     OM1 6799   1.679   6.801   0.423  0.0000  0.0000  0.0000
 6800OM     OM1 6800   1.619   7.048   0.452  0.0000  0.0000  0.0000
 6801OM     OM1 6801   4.124   6.616   9.062  0.0000  0.0000  0.0000
 6802OM     OM1 6802   4.216   6.835   8.947  0.0000  0.0000  0.0000
 6803OM     OM1 6803   4.167   6.826   9.204  0.0000  0.0000  0.0000
 6804OM     OM1 6804   5.450   8.567   8.950  0.0000  0.0000  0.0000
 6805OM     OM1 6805   5.457   8.780   9.118  0.0000  0.0000  0.0000
 6806OM     OM1 6806   5.661   8.639   9.076  0.0000  0.0000  0.0000
 6807OM     OM1 6807   9.143   4.479   0.353  0.0000  0.0000  0.0000
 6808OM     OM1 6808   9.260   4.709   0.421  0.0000  0.0000  0.0000
 6809OM     OM1 6809   9.060   4.695   0.248  0.0000  0.0000  0.0000
 6810OM     OM1 6810   6.215   9.466   8.444  0.0000  0.0000  0.0000
 6811OM     OM1 6811   1.677   1.357   0.618  0.0000  0.0000  0.0000
 6812OM     OM1 6812   2.233   5.118   8.645  0.0000  0.0000  0.0000
 6813OM     OM1 6813   2.039   7.791   8.568  0.0000  0.0000  0.0000
 6814OM     OM1 6814   2.145   7.591   8.700  0.0000  0.0000  0.0000
 6815OM     OM1 6815   5.263   0.694   9.394  0.0000  0.0000  0.0000
 6816OM     OM1 6816   5.099   0.590   9.569  0.0000  0.0000  0.0000
 6817OM     OM1 6817   6.740   0.130   9.466  0.0000  0.0000  0.0000
 6818OM     OM1 6818   6.973   0.092   9.340  0.0000  0.0000  0.0000
 6819OM     OM1 6819   5.475   5.851   0.152  0.0000  0.0000  0.0000
 6820OM     OM1 6820   5.417   5.851   9.503  0.0000  0.0000  0.0000
 6821OM     OM1 6821   5.559   6.050   0.002  0.0000  0.0000  0.0000
 6822OM     OM1 6822   5.304   6.034   0.045  0.0000  0.0000  0.0000
 6823OM     OM1 6823   5.558   9.052   8.476  0.0000  0.0000  0.0000
 6824OM     OM1 6824   5.510   8.802   8.450  0.0000  0.0000  0.0000
 6825OM     OM1 6825   1.384   5.529   8.370  0.0000  0.0000  0.0000
 6826OM     OM1 6826   1.196   5.529   8.541  0.0000  0.0000  0.0000
 6827OM     OM1 6827   1.157   5.638   8.309  0.0000  0.0000  0.0000
 6828OM     OM1 6828   6.750   3.626   9.366  0.0000  0.0000  0.0000
 6829OM     OM1 6829   6.615   3.470   9.513  0.0000  0.0000  0.0000
 6830OM     OM1 6830   6.639   3.407   9.270  0.0000  0.0000  0.0000
 6831OM     OM1 6831   0.636   3.441   9.164  0.0000  0.0000  0.0000
 6832OM     OM1 6832   0.885   3.340   9.176  0.0000  0.0000  0.0000
 6833OM     OM1 6833   6.327   0.978   9.018  0.0000  0.0000  0.0000
 6834OM     OM1 6834   6.450   1.170   8.896  0.0000  0.0000  0.0000
 6835OM     OM1 6835   3.632   1.660   1.235  0.0000  0.0000  0.0000
 6836OM     OM1 6836   3.981   1.568   1.343  0.0000  0.0000  0.0000
 6837OM     OM1 6837   3.840   1.586   1.131  0.0000  0.0000  0.0000
 6838OM     OM1 6838   3.316   0.214   0.932  0.0000  0.0000  0.0000
 6839OM     OM1 6839   3.449   0.295   0.726  0.0000  0.0000  0.0000
 6840OM     OM1 6840   6.537   4.870   9.340  0.0000  0.0000  0.0000
 6841OM     OM1 6841   4.143   6.700   8.743  0.0000  0.0000  0.0000
 6842OM     OM1 6842   4.374   6.800   8.743  0.0000  0.0000  0.0000
 6843OM     OM1 6843   9.045   3.357   8.418  0.0000  0.0000  0.0000
 6844OM     OM1 6844   9.156   3.567   8.526  0.0000  0.0000  0.0000
 6845OM     OM1 6845   2.523   5.076   0.498  0.0000  0.0000  0.0000
 6846OM     OM1 6846   2.402   5.314   0.516  0.0000  0.0000  0.0000
 6847OM     OM1 6847   2.280   5.110   0.422  0.0000  0.0000  0.0000
 6848OM     OM1 6848   2.489   5.224   0.292  0.0000  0.0000  0.0000
 6849OM     OM1 6849   6.857   7.447   0.053  0.0000  0.0000  0.0000
 6850OM     OM1 6850   6.979   7.372   0.269  0.0000  0.0000  0.0000
 6851OM     OM1 6851   6.721   7.302   0.227  0.0000  0.0000  0.0000
 6852OM     OM1 6852   9.183   1.834   0.839  0.0000  0.0000  0.0000
 6853OM     OM1 6853   9.008   1.815   0.637  0.0000  0.0000  0.0000
 6854OM     OM1 6854   8.493   3.820   1.334  0.0000  0.0000  0.0000
 6855OM     OM1 6855   8.580   3.741   1.097  0.0000  0.0000  0.0000
 6856OM     OM1 6856   4.816   1.751   0.105  0.0000  0.0000  0.0000
 6857OM     OM1 6857   5.017   1.855   0.239  0.0000  0.0000  0.0000
 6858OM     OM1 6858   4.798   1.978   0.238  0.0000  0.0000  0.0000
 6859OM     OM1 6859   4.818   1.744   0.367  0.0000  0.0000  0.0000
 6860OM     OM1 6860   3.358   6.202   9.559  0.0000  0.0000  0.0000
 6861OM     OM1 6861   3.841   6.097   9.589  0.0000  0.0000  0.0000
 6862OM     OM1 6862   3.516   6.312   9.375  0.0000  0.0000  0.0000
 6863OM     OM1 6863   4.789   4.893   0.257  0.0000  0.0000  0.0000
 6864OM     OM1 6864   9.122   1.091   9.102  0.0000  0.0000  0.0000
 6865OM     OM1 6865   9.215   1.324   9.019  0.0000  0.0000  0.0000
 6866OM     OM1 6866   9.366   1.177   9.171  0.0000  0.0000  0.0000
 6867OM     OM1 6867   7.782   8.704   0.793  0.0000  0.0000  0.0000
 6868OM     OM1 6868   7.788   8.998   1.156  0.0000  0.0000  0.0000
 6869OM     OM1 6869   7.758   8.931   0.913  0.0000  0.0000  0.0000
 6870OM     OM1 6870   1.196   3.295   0.443  0.0000  0.0000  0.0000
 6871OM     OM1 6871   1.230   3.026   0.359  0.0000  0.0000  0.0000
 6872OM     OM1 6872   9.006   3.295   9.138  0.0000  0.0000  0.0000
 6873OM     OM1 6873   9.154   3.463   9.004  0.0000  0.0000  0.0000
 6874OM     OM1 6874   9.130   3.214   8.927  0.0000  0.0000  0.0000
 6875OM     OM1 6875   2.328   4.455   0.005  0.0000  0.0000  0.0000
 6876OM     OM1 6876   2.278   4.577   9.380  0.0000  0.0000  0.0000
 6877OM     OM1 6877   2.165   4.656   0.010  0.0000  0.0000  0.0000
 6878OM     OM1 6878   3.657   1.878   9.210  0.0000  0.0000  0.0000
 6879OM     OM1 6879   3.543   2.069   9.093  0.0000  0.0000  0.0000
 6880OM     OM1 6880   7.007   8.749   8.783  0.0000  0.0000  0.0000
 6881OM     OM1 6881   6.837   8.550   8.806  0.0000  0.0000  0.0000
 6882OM     OM1 6882   7.092   8.516   8.874  0.0000  0.0000  0.0000
 6883OM     OM1 6883   0.307   3.719   0.811  0.0000  0.0000  0.0000
 6884OM     OM1 6884   0.168   3.550   0.673  0.0000  0.0000  0.0000
 6885OM     OM1 6885   4.691   3.530   9.293  0.0000  0.0000  0.0000
 6886OM     OM1 6886   4.449   3.507   9.215  0.0000  0.0000  0.0000
 6887OM     OM1 6887   2.392   6.638   0.506  0.0000  0.0000  0.0000
 6888OM     OM1 6888   9.278   9.273   0.354  0.0000  0.0000  0.0000
 6889OM     OM1 6889   9.578   6.697   8.371  0.0000  0.0000  0.0000
 6890OM     OM1 6890   0.169   6.829   8.524  0.0000  0.0000  0.0000
 6891OM     OM1 6891   2.698   7.306   0.986  0.0000  0.0000  0.0000
 6892OM     OM1 6892   2.570   7.382   1.203  0.0000  0.0000  0.0000
 6893OM     OM1 6893   1.418   2.420   0.767  0.0000  0.0000  0.0000
 6894OM     OM1 6894   1.227   2.311   0.890  0.0000  0.0000  0.0000
 6895OM     OM1 6895   5.018   0.082   9.520  0.0000  0.0000  0.0000
 6896OM     OM1 6896   5.217   0.156   0.054  0.0000  0.0000  0.0000
 6897OM     OM1 6897   5.146   0.147   0.307  0.0000  0.0000  0.0000
 6898OM     OM1 6898   5.049   0.337   9.570  0.0000  0.0000  0.0000
 6899OM     OM1 6899   0.515   1.212   8.256  0.0000  0.0000  0.0000
 6900OM     OM1 6900   0.438   1.115   8.485  0.0000  0.0000  0.0000
 6901OM     OM1 6901   2.755   8.350   1.319  0.0000  0.0000  0.0000
 6902OM     OM1 6902   6.592   1.232   0.079  0.0000  0.0000  0.0000
 6903OM     OM1 6903   6.734   1.327   9.492  0.0000  0.0000  0.0000
 6904OM     OM1 6904   6.478   1.387   9.508  0.0000  0.0000  0.0000
 6905OM     OM1 6905   1.794   8.454   9.386  0.0000  0.0000  0.0000
 6906OM     OM1 6906   3.920   1.327   8.736  0.0000  0.0000  0.0000
 6907OM     OM1 6907   3.719   1.435   8.600  0.0000  0.0000  0.0000
 6908OM     OM1 6908   3.784   1.524   8.831  0.0000  0.0000  0.0000
 6909OM     OM1 6909   3.941   1.571   8.628  0.0000  0.0000  0.0000
 6910OM     OM1 6910   2.166   4.294   0.899  0.0000  0.0000  0.0000
 6911OM     OM1 6911   3.562   7.750   8.670  0.0000  0.0000  0.0000
 6912OM     OM1 6912   3.424   7.908   8.502  0.0000  0.0000  0.0000
 6913OM     OM1 6913   5.444   7.621   8.404  0.0000  0.0000  0.0000
 6914OM     OM1 6914   5.383   7.473   8.601  0.0000  0.0000  0.0000
 6915OM     OM1 6915   5.514   7.351   8.409  0.0000  0.0000  0.0000
 6916OM     OM1 6916   1.713   3.709   8.568  0.0000  0.0000  0.0000
 6917OM     OM1 6917   1.656   3.919   8.419  0.0000  0.0000  0.0000
 6918OM     OM1 6918   5.167   2.575   9.419  0.0000  0.0000  0.0000
 6919OM     OM1 6919   4.919   2.550   9.329  0.0000  0.0000  0.0000
 6920OM     OM1 6920   5.090   2.731   9.229  0.0000  0.0000  0.0000
 6921OM     OM1 6921   1.875   6.207   8.284  0.0000  0.0000  0.0000
 6922OM     OM1 6922   0.042   7.988   8.711  0.0000  0.0000  0.0000
 6923OM     OM1 6923   0.269   7.846   8.696  0.0000  0.0000  0.0000
 6924OM     OM1 6924   0.380   7.812   8.464  0.0000  0.0000  0.0000
 6925OM     OM1 6925   0.578   0.148   9.457  0.0000  0.0000  0.0000
 6926OM     OM1 6926   6.284   0.909   8.367  0.0000  0.0000  0.0000
 6927OM     OM1 6927   4.230   2.444   1.093  0.0000  0.0000  0.0000
 6928OM     OM1 6928   4.428   2.277   1.089  0.0000  0.0000  0.0000
 6929OM     OM1 6929   4.204   2.214   0.962  0.0000  0.0000  0.0000
 6930OM     OM1 6930   7.070   8.791   9.534  0.0000  0.0000  0.0000
 6931OM     OM1 6931   3.786   5.174   8.342  0.0000  0.0000  0.0000
 6932OM     OM1 6932   3.571   5.322   8.322  0.0000  0.0000  0.0000
 6933OM     OM1 6933   0.396   3.549   9.111  0.0000  0.0000  0.0000
 6934OM     OM1 6934   0.556   3.459   8.918  0.0000  0.0000  0.0000
 6935OM     OM1 6935   1.710   8.134   8.726  0.0000  0.0000  0.0000
 6936OM     OM1 6936   1.579   8.327   8.600  0.0000  0.0000  0.0000
 6937OM     OM1 6937   1.826   8.356   8.692  0.0000  0.0000  0.0000
 6938OM     OM1 6938   3.143   3.136   8.473  0.0000  0.0000  0.0000
 6939OM     OM1 6939   3.296   2.968   8.319  0.0000  0.0000  0.0000
 6940OM     OM1 6940   3.418   3.140   8.466  0.0000  0.0000  0.0000
 6941OM     OM1 6941   0.064   5.627   0.061  0.0000  0.0000  0.0000
 6942OM     OM1 6942   9.452   5.535   9.567  0.0000  0.0000  0.0000
 6943OM     OM1 6943   9.511   5.461   0.204  0.0000  0.0000  0.0000
 6944OM     OM1 6944   2.183   7.954   9.327  0.0000  0.0000  0.0000
 6945OM     OM1 6945   2.067   7.737   9.277  0.0000  0.0000  0.0000
 6946OM     OM1 6946   0.778   3.249   0.856  0.0000  0.0000  0.0000
 6947OM     OM1 6947   0.827   3.356   0.619  0.0000  0.0000  0.0000
 6948OM     OM1 6948   7.524   9.486   8.843  0.0000  0.0000  0.0000
 6949OM     OM1 6949   7.669   9.287   8.752  0.0000  0.0000  0.0000
 6950OM     OM1 6950   7.665   9.514   8.615  0.0000  0.0000  0.0000
 6951OM     OM1 6951   9.306   7.288   0.975  0.0000  0.0000  0.0000
 6952OM     OM1 6952   9.441   7.094   0.882  0.0000  0.0000  0.0000
 6953OM     OM1 6953   9.249   7.205   0.732  0.0000  0.0000  0.0000
 6954OM     OM1 6954   9.473   7.325   0.764  0.0000  0.0000  0.0000
 6955OM     OM1 6955   9.538   6.617   0.470  0.0000  0.0000  0.0000
 6956OM     OM1 6956   9.362   6.745   0.319  0.0000  0.0000  0.0000
 6957OM     OM1 6957   9.368   6.784   0.567  0.0000  0.0000  0.0000
 6958OM     OM1 6958   6.626   8.988   0.270  0.0000  0.0000  0.0000
 6959OM     OM1 6959   6.601   9.098   9.558  0.0000  0.0000  0.0000
 6960OM     OM1 6960   0.373   5.503   1.078  0.0000  0.0000  0.0000
 6961OM     OM1 6961   0.214   6.645   8.360  0.0000  0.0000  0.0000
 6962OM     OM1 6962   6.623   1.224   0.339  0.0000  0.0000  0.0000
 6963OM     OM1 6963   6.800   1.047   0.393  0.0000  0.0000  0.0000
 6964OM     OM1 6964   6.677   0.850   0.504  0.0000  0.0000  0.0000
 6965OM     OM1 6965   5.453   3.423   9.388  0.0000  0.0000  0.0000
 6966OM     OM1 6966   5.656   3.807   9.189  0.0000  0.0000  0.0000
 6967OM     OM1 6967   5.606   3.629   9.369  0.0000  0.0000  0.0000
 6968OM     OM1 6968   8.756   2.510   1.094  0.0000  0.0000  0.0000
 6969OM     OM1 6969   8.878   2.366   0.914  0.0000  0.0000  0.0000
 6970OM     OM1 6970   6.345   6.515   0.068  0.0000  0.0000  0.0000
 6971OM     OM1 6971   6.302   6.111   9.586  0.0000  0.0000  0.0000
 6972OM     OM1 6972   2.934   8.395   0.450  0.0000  0.0000  0.0000
 6973OM     OM1 6973   2.695   8.315   0.495  0.0000  0.0000  0.0000
 6974OM     OM1 6974   2.761   8.555   0.570  0.0000  0.0000  0.0000
 6975OM     OM1 6975   3.349   8.442   8.837  0.0000  0.0000  0.0000
 6976OM     OM1 6976   3.125   8.394   8.943  0.0000  0.0000  0.0000
 6977OM     OM1 6977   3.325   8.269   9.048  0.0000  0.0000  0.0000
 6978OM     OM1 6978   6.700   7.691   8.361  0.0000  0.0000  0.0000
 6979OM     OM1 6979   8.465   1.237   0.603  0.0000  0.0000  0.0000
 6980OM     OM1 6980   8.266   1.070   0.659  0.0000  0.0000  0.0000
 6981OM     OM1 6981   8.330   1.140   0.411  0.0000  0.0000  0.0000
 6982OM     OM1 6982   0.870   5.692   9.504  0.0000  0.0000  0.0000
 6983OM     OM1 6983   1.064   5.664   9.325  0.0000  0.0000  0.0000
 6984OM     OM1 6984   9.334   5.004   0.040  0.0000  0.0000  0.0000
 6985OM     OM1 6985   9.325   5.210   9.480  0.0000  0.0000  0.0000
 6986OM     OM1 6986   9.105   5.104   9.581  0.0000  0.0000  0.0000
 6987OM     OM1 6987   6.868   5.363   8.459  0.0000  0.0000  0.0000
 6988OM     OM1 6988   6.930   5.581   8.335  0.0000  0.0000  0.0000
 6989OM     OM1 6989   8.480   4.725   0.219  0.0000  0.0000  0.0000
 6990OM     OM1 6990   8.644   4.773   0.419  0.0000  0.0000  0.0000
 6991OM     OM1 6991   1.077   7.454   8.815  0.0000  0.0000  0.0000
 6992OM     OM1 6992   0.894   7.305   8.716  0.0000  0.0000  0.0000
 6993OM     OM1 6993   9.096   8.195   0.219  0.0000  0.0000  0.0000
 6994OM     OM1 6994   9.364   8.181   0.194  0.0000  0.0000  0.0000
 6995OM     OM1 6995   3.028   4.825   9.419  0.0000  0.0000  0.0000
 6996OM     OM1 6996   3.132   4.914   0.048  0.0000  0.0000  0.0000
 6997OM     OM1 6997   9.248   9.360   1.258  0.0000  0.0000  0.0000
 6998OM     OM1 6998   7.305   0.285   0.891  0.0000  0.0000  0.0000
 6999OM     OM1 6999   7.189   0.149   0.708  0.0000  0.0000  0.0000
 7000OM     OM1 7000   0.735   1.490   0.913  0.0000  0.0000  0.0000
 7001OM     OM1 7001   9.160   2.527   8.475  0.0000  0.0000  0.0000
 7002OM     OM1 7002   9.222   3.342   0.328  0.0000  0.0000  0.0000
 7003OM     OM1 7003   7.192   9.172   0.436  0.0000  0.0000  0.0000
 7004OM     OM1 7004   6.948   9.120   0.503  0.0000  0.0000  0.0000
 7005OM     OM1 7005   7.079   8.933   0.383  0.0000  0.0000  0.0000
 7006OM     OM1 7006   3.278   1.126   0.675  0.0000  0.0000  0.0000
 7007OM     OM1 7007   2.034   5.614   0.988  0.0000  0.0000  0.0000
 7008OM     OM1 7008   2.067   5.607   1.246  0.0000  0.0000  0.0000
 7009OM     OM1 7009   2.064   5.383   1.111  0.0000  0.0000  0.0000
 7010OM     OM1 7010   3.703   2.511   9.043  0.0000  0.0000  0.0000
 7011OM     OM1 7011   3.698   2.261   8.981  0.0000  0.0000  0.0000
 7012OM     OM1 7012   3.883   2.432   8.892  0.0000  0.0000  0.0000
 7013OM     OM1 7013   7.107   2.110   0.269  0.0000  0.0000  0.0000
 7014OM     OM1 7014   6.937   2.273   0.390  0.0000  0.0000  0.0000
 7015OM     OM1 7015   6.950   2.259   0.134  0.0000  0.0000  0.0000
 7016OM     OM1 7016   7.150   2.373   0.265  0.0000  0.0000  0.0000
 7017OM     OM1 7017   7.105   5.675   9.235  0.0000  0.0000  0.0000
 7018OM     OM1 7018   6.860   5.751   9.202  0.0000  0.0000  0.0000
 7019OM     OM1 7019   5.936   8.918   1.159  0.0000  0.0000  0.0000
 7020OM     OM1 7020   6.081   9.117   1.259  0.0000  0.0000  0.0000
 7021OM     OM1 7021   8.212   7.089   0.754  0.0000  0.0000  0.0000
 7022OM     OM1 7022   8.224   7.166   0.508  0.0000  0.0000  0.0000
 7023OM     OM1 7023   8.398   7.257   0.711  0.0000  0.0000  0.0000
 7024OM     OM1 7024   2.050   3.967   0.592  0.0000  0.0000  0.0000
 7025OM     OM1 7025   2.138   4.045   0.837  0.0000  0.0000  0.0000
 7026OM     OM1 7026   2.199   4.174   0.625  0.0000  0.0000  0.0000
 7027OM     OM1 7027   1.953   4.171   0.710  0.0000  0.0000  0.0000
 7028OM     OM1 7028   2.154   6.577   0.602  0.0000  0.0000  0.0000
 7029OM     OM1 7029   2.092   6.400   0.793  0.0000  0.0000  0.0000
 7030OM     OM1 7030   2.237   6.615   0.841  0.0000  0.0000  0.0000
 7031OM     OM1 7031   1.986   6.649   0.779  0.0000  0.0000  0.0000
 7032OM     OM1 7032   3.224   4.147   0.121  0.0000  0.0000  0.0000
 7033OM     OM1 7033   3.146   4.113   0.356  0.0000  0.0000  0.0000
 7034OM     OM1 7034   3.026   4.292   0.224  0.0000  0.0000  0.0000
 7035OM     OM1 7035   5.283   3.408   8.541  0.0000  0.0000  0.0000
 7036OM     OM1 7036   5.215   3.598   8.377  0.0000  0.0000  0.0000
 7037OM     OM1 7037   5.247   3.335   8.293  0.0000  0.0000  0.0000
 7038OM     OM1 7038   8.741   8.579   9.025  0.0000  0.0000  0.0000
 7039OM     OM1 7039   8.937   8.417   9.051  0.0000  0.0000  0.0000
 7040OM     OM1 7040   8.902   8.560   8.835  0.0000  0.0000  0.0000
 7041OM     OM1 7041   8.975   8.690   9.045  0.0000  0.0000  0.0000
 7042OM     OM1 7042   3.197   4.835   8.914  0.0000  0.0000  0.0000
 7043OM     OM1 7043   3.280   4.596   8.988  0.0000  0.0000  0.0000
 7044OM     OM1 7044   3.792   5.053   8.916  0.0000  0.0000  0.0000
 7045OM     OM1 7045   3.851   4.863   8.737  0.0000  0.0000  0.0000
 7046OM     OM1 7046   4.006   4.917   8.939  0.0000  0.0000  0.0000
 7047OM     OM1 7047   5.904   3.196   9.315  0.0000  0.0000  0.0000
 7048OM     OM1 7048   6.127   3.119   9.429  0.0000  0.0000  0.0000
 7049OM     OM1 7049   6.052   3.037   9.186  0.0000  0.0000  0.0000
 7050OM     OM1 7050   6.131   3.284   9.230  0.0000  0.0000  0.0000
 7051OM     OM1 7051   7.718   1.068   9.461  0.0000  0.0000  0.0000
 7052OM     OM1 7052   2.508   0.589   8.370  0.0000  0.0000  0.0000
 7053OM     OM1 7053   4.911   4.154   0.498  0.0000  0.0000  0.0000
 7054OM     OM1 7054   5.040   4.006   0.337  0.0000  0.0000  0.0000
 7055OM     OM1 7055   0.737   3.934   0.898  0.0000  0.0000  0.0000
 7056OM     OM1 7056   8.867   4.649   0.072  0.0000  0.0000  0.0000
 7057OM     OM1 7057   8.671   4.522   9.534  0.0000  0.0000  0.0000
 7058OM     OM1 7058   5.566   2.316   0.251  0.0000  0.0000  0.0000
 7059OM     OM1 7059   5.652   2.384   0.023  0.0000  0.0000  0.0000
 7060OM     OM1 7060   5.647   2.565   0.215  0.0000  0.0000  0.0000
 7061OM     OM1 7061   3.345   4.050   1.014  0.0000  0.0000  0.0000
 7062OM     OM1 7062   3.573   4.033   0.915  0.0000  0.0000  0.0000
 7063OM     OM1 7063   3.324   4.313   0.971  0.0000  0.0000  0.0000
 7064OM     OM1 7064   3.539   4.097   1.174  0.0000  0.0000  0.0000
 7065OM     OM1 7065   8.240   1.664   8.359  0.0000  0.0000  0.0000
 7066OM     OM1 7066   8.032   1.626   8.221  0.0000  0.0000  0.0000
 7067OM     OM1 7067   5.540   3.925   8.685  0.0000  0.0000  0.0000
 7068OM     OM1 7068   5.556   3.660   8.728  0.0000  0.0000  0.0000
 7069OM     OM1 7069   5.570   3.818   8.927  0.0000  0.0000  0.0000
 7070OM     OM1 7070   5.341   3.792   8.786  0.0000  0.0000  0.0000
 7071OM     OM1 7071   9.311   5.408   8.648  0.0000  0.0000  0.0000
 7072OM     OM1 7072   9.473   5.204   8.670  0.0000  0.0000  0.0000
 7073OM     OM1 7073   9.442   5.339   8.442  0.0000  0.0000  0.0000
 7074OM     OM1 7074   2.324   3.579   0.549  0.0000  0.0000  0.0000
 7075OM     OM1 7075   2.282   3.603   0.800  0.0000  0.0000  0.0000
 7076OM     OM1 7076   2.116   3.721   0.632  0.0000  0.0000  0.0000
 7077OM     OM1 7077   7.664   7.575   9.043  0.0000  0.0000  0.0000
 7078OM     OM1 7078   7.469   7.712   8.934  0.0000  0.0000  0.0000
 7079OM     OM1 7079   0.455   4.716   9.564  0.0000  0.0000  0.0000
 7080OM     OM1 7080   0.705   4.704   9.531  0.0000  0.0000  0.0000
 7081OM     OM1 7081   0.565   4.495   9.486  0.0000  0.0000  0.0000
 7082OM     OM1 7082   0.928   4.848   9.526  0.0000  0.0000  0.0000
 7083OM     OM1 7083   7.663   5.528   8.853  0.0000  0.0000  0.0000
 7084OM     OM1 7084   7.843   5.563   9.023  0.0000  0.0000  0.0000
 7085OM     OM1 7085   5.086   0.562   0.880  0.0000  0.0000  0.0000
 7086OM     OM1 7086   5.053   0.812   0.945  0.0000  0.0000  0.0000
 7087OM     OM1 7087   2.727   4.035   9.443  0.0000  0.0000  0.0000
 7088OM     OM1 7088   2.519   3.911   9.505  0.0000  0.0000  0.0000
 7089OM     OM1 7089   2.618   4.079   0.078  0.0000  0.0000  0.0000
 7090OM     OM1 7090   2.572   4.650   8.907  0.0000  0.0000  0.0000
 7091OM     OM1 7091   2.687   5.069   9.091  0.0000  0.0000  0.0000
 7092OM     OM1 7092   2.745   4.819   9.014  0.0000  0.0000  0.0000
 7093OM     OM1 7093   2.813   4.629   8.837  0.0000  0.0000  0.0000
 7094OM     OM1 7094   2.361   1.348   8.358  0.0000  0.0000  0.0000
 7095OM     OM1 7095   3.893   5.211   0.716  0.0000  0.0000  0.0000
 7096OM     OM1 7096   3.901   4.970   0.821  0.0000  0.0000  0.0000
 7097OM     OM1 7097   4.082   5.149   0.884  0.0000  0.0000  0.0000
 7098OM     OM1 7098   1.338   5.274   8.435  0.0000  0.0000  0.0000
 7099OM     OM1 7099   6.469   9.490   8.400  0.0000  0.0000  0.0000
 7100OM     OM1 7100   6.383   9.445   8.647  0.0000  0.0000  0.0000
 7101OM     OM1 7101   5.342   4.361   8.953  0.0000  0.0000  0.0000
 7102OM     OM1 7102   5.149   4.529   8.965  0.0000  0.0000  0.0000
 7103OM     OM1 7103   4.710   1.986   9.182  0.0000  0.0000  0.0000
 7104OM     OM1 7104   4.963   2.024   9.176  0.0000  0.0000  0.0000
 7105OM     OM1 7105   4.925   5.982   8.922  0.0000  0.0000  0.0000
 7106OM     OM1 7106   4.762   5.875   8.744  0.0000  0.0000  0.0000
 7107OM     OM1 7107   4.744   6.127   8.809  0.0000  0.0000  0.0000
 7108OM     OM1 7108   8.807   1.156   8.706  0.0000  0.0000  0.0000
 7109OM     OM1 7109   8.588   1.139   8.573  0.0000  0.0000  0.0000
 7110OM     OM1 7110   8.647   0.959   8.747  0.0000  0.0000  0.0000
 7111OM     OM1 7111   8.583   1.209   8.830  0.0000  0.0000  0.0000
 7112OM     OM1 7112   7.171   3.043   1.149  0.0000  0.0000  0.0000
 7113OM     OM1 7113   6.988   3.073   1.333  0.0000  0.0000  0.0000
 7114OM     OM1 7114   7.074   2.837   1.263  0.0000  0.0000  0.0000
 7115OM     OM1 7115   1.968   7.249   9.564  0.0000  0.0000  0.0000
 7116OM     OM1 7116   1.971   7.359   9.326  0.0000  0.0000  0.0000
 7117OM     OM1 7117   2.194   7.287   9.449  0.0000  0.0000  0.0000
 7118OM     OM1 7118   1.474   8.204   0.039  0.0000  0.0000  0.0000
 7119OM     OM1 7119   1.505   8.283   0.289  0.0000  0.0000  0.0000
 7120OM     OM1 7120   1.613   8.418   0.106  0.0000  0.0000  0.0000
 7121OM     OM1 7121   7.228   9.403   0.314  0.0000  0.0000  0.0000
 7122OM     OM1 7122   7.049   9.542   0.176  0.0000  0.0000  0.0000
 7123OM     OM1 7123   7.299   9.513   0.089  0.0000  0.0000  0.0000
 7124OM     OM1 7124   1.015   9.561   0.905  0.0000  0.0000  0.0000
 7125OM     OM1 7125   1.248   0.076   0.908  0.0000  0.0000  0.0000
 7126OM     OM1 7126   0.786   9.549   1.031  0.0000  0.0000  0.0000
 7127OM     OM1 7127   1.400   7.551   1.067  0.0000  0.0000  0.0000
 7128OM     OM1 7128   1.529   7.544   0.841  0.0000  0.0000  0.0000
 7129OM     OM1 7129   1.335   7.716   0.861  0.0000  0.0000  0.0000
 7130OM     OM1 7130   1.560   7.743   0.995  0.0000  0.0000  0.0000
 7131OM     OM1 7131   4.909   7.323   8.804  0.0000  0.0000  0.0000
 7132OM     OM1 7132   4.852   7.124   8.651  0.0000  0.0000  0.0000
 7133OM     OM1 7133   8.472   8.110   0.888  0.0000  0.0000  0.0000
 7134OM     OM1 7134   8.273   8.247   0.957  0.0000  0.0000  0.0000
 7135OM     OM1 7135   2.370   8.671   8.739  0.0000  0.0000  0.0000
 7136OM     OM1 7136   2.173   8.588   8.590  0.0000  0.0000  0.0000
 7137OM     OM1 7137   2.227   8.462   8.809  0.0000  0.0000  0.0000
 7138OM     OM1 7138   3.938   6.572   8.821  0.0000  0.0000  0.0000
 7139OM     OM1 7139   3.711   6.470   8.882  0.0000  0.0000  0.0000
 7140OM     OM1 7140   3.737   6.646   8.692  0.0000  0.0000  0.0000
 7141OM     OM1 7141   6.785   0.543   8.292  0.0000  0.0000  0.0000
 7142OM     OM1 7142   6.637   0.322   8.305  0.0000  0.0000  0.0000
 7143OM     OM1 7143   1.167   6.589   0.932  0.0000  0.0000  0.0000
 7144OM     OM1 7144   1.023   6.983   0.880  0.0000  0.0000  0.0000
 7145OM     OM1 7145   0.908   6.532   0.959  0.0000  0.0000  0.0000
 7146OM     OM1 7146   3.804   6.280   8.722  0.0000  0.0000  0.0000
 7147OM     OM1 7147   3.847   6.049   8.607  0.0000  0.0000  0.0000
 7148OM     OM1 7148   4.030   6.245   8.582  0.0000  0.0000  0.0000
 7149OM     OM1 7149   5.133   7.690   0.626  0.0000  0.0000  0.0000
 7150OM     OM1 7150   5.220   7.648   0.865  0.0000  0.0000  0.0000
 7151OM     OM1 7151   5.318   7.850   0.722  0.0000  0.0000  0.0000
 7152OM     OM1 7152   6.065   2.719   0.486  0.0000  0.0000  0.0000
 7153OM     OM1 7153   6.985   0.637   1.187  0.0000  0.0000  0.0000
 7154OM     OM1 7154   7.152   0.826   1.270  0.0000  0.0000  0.0000
 7155OM     OM1 7155   2.720   5.345   0.231  0.0000  0.0000  0.0000
 7156OM     OM1 7156   2.895   5.529   0.192  0.0000  0.0000  0.0000
 7157OM     OM1 7157   2.995   5.296   0.226  0.0000  0.0000  0.0000
 7158OM     OM1 7158   7.578   1.412   8.660  0.0000  0.0000  0.0000
 7159OM     OM1 7159   7.701   1.290   8.458  0.0000  0.0000  0.0000
 7160OM     OM1 7160   7.444   1.242   8.521  0.0000  0.0000  0.0000
 7161OM     OM1 7161   7.649   1.165   8.678  0.0000  0.0000  0.0000
 7162OM     OM1 7162   1.829   6.534   0.618  0.0000  0.0000  0.0000
 7163OM     OM1 7163   1.897   6.769   0.554  0.0000  0.0000  0.0000
 7164OM     OM1 7164   2.719   8.796   0.661  0.0000  0.0000  0.0000
 7165OM     OM1 7165   2.949   8.918   0.618  0.0000  0.0000  0.0000
 7166OM     OM1 7166   2.744   9.057   0.685  0.0000  0.0000  0.0000
 7167OM     OM1 7167   7.119   0.634   0.426  0.0000  0.0000  0.0000
 7168OM     OM1 7168   7.394   4.490   1.089  0.0000  0.0000  0.0000
 7169OM     OM1 7169   7.446   4.234   1.096  0.0000  0.0000  0.0000
 7170OM     OM1 7170   7.589   4.403   1.228  0.0000  0.0000  0.0000
 7171OM     OM1 7171   7.279   6.966   8.420  0.0000  0.0000  0.0000
 7172OM     OM1 7172   4.333   6.138   9.060  0.0000  0.0000  0.0000
 7173OM     OM1 7173   4.271   5.884   9.060  0.0000  0.0000  0.0000
 7174OM     OM1 7174   4.087   6.068   9.065  0.0000  0.0000  0.0000
 7175OM     OM1 7175   7.006   5.060   9.167  0.0000  0.0000  0.0000
 7176OM     OM1 7176   7.082   5.009   8.917  0.0000  0.0000  0.0000
 7177OM     OM1 7177   6.904   4.861   9.048  0.0000  0.0000  0.0000
 7178OM     OM1 7178   7.830   4.561   0.360  0.0000  0.0000  0.0000
 7179OM     OM1 7179   7.960   4.457   0.172  0.0000  0.0000  0.0000
 7180OM     OM1 7180   3.737   2.647   8.283  0.0000  0.0000  0.0000
 7181OM     OM1 7181   5.407   8.527   1.043  0.0000  0.0000  0.0000
 7182OM     OM1 7182   5.409   8.267   1.061  0.0000  0.0000  0.0000
 7183OM     OM1 7183   0.506   2.276   9.493  0.0000  0.0000  0.0000
 7184OM     OM1 7184   2.371   9.358   1.120  0.0000  0.0000  0.0000
 7185OM     OM1 7185   2.591   9.454   1.034  0.0000  0.0000  0.0000
 7186OM     OM1 7186   5.388   8.032   9.004  0.0000  0.0000  0.0000
 7187OM     OM1 7187   5.210   7.963   8.806  0.0000  0.0000  0.0000
 7188OM     OM1 7188   5.430   7.828   8.861  0.0000  0.0000  0.0000
 7189OM     OM1 7189   5.440   8.074   8.761  0.0000  0.0000  0.0000
 7190OM     OM1 7190   8.394   3.494   9.073  0.0000  0.0000  0.0000
 7191OM     OM1 7191   8.223   3.294   8.988  0.0000  0.0000  0.0000
 7192OM     OM1 7192   8.137   3.497   9.108  0.0000  0.0000  0.0000
 7193OM     OM1 7193   8.243   3.536   8.874  0.0000  0.0000  0.0000
 7194OM     OM1 7194   3.737   5.949   1.084  0.0000  0.0000  0.0000
 7195OM     OM1 7195   3.546   6.107   1.029  0.0000  0.0000  0.0000
 7196OM     OM1 7196   3.547   6.559   9.266  0.0000  0.0000  0.0000
 7197OM     OM1 7197   3.745   6.568   9.421  0.0000  0.0000  0.0000
 7198OM     OM1 7198   4.296   6.974   8.339  0.0000  0.0000  0.0000
 7199OM     OM1 7199   5.539   1.305   8.611  0.0000  0.0000  0.0000
 7200OM     OM1 7200   5.342   1.383   8.450  0.0000  0.0000  0.0000
 7201OM     OM1 7201   3.029   7.799   9.154  0.0000  0.0000  0.0000
 7202OM     OM1 7202   2.932   7.950   9.349  0.0000  0.0000  0.0000
 7203OM     OM1 7203   6.270   8.830   0.759  0.0000  0.0000  0.0000
 7204OM     OM1 7204   6.093   8.825   0.962  0.0000  0.0000  0.0000
 7205OM     OM1 7205   2.413   1.227   0.602  0.0000  0.0000  0.0000
 7206OM     OM1 7206   2.380   1.318   0.354  0.0000  0.0000  0.0000
 7207OM     OM1 7207   5.866   4.714   9.221  0.0000  0.0000  0.0000
 7208OM     OM1 7208   5.966   4.753   8.988  0.0000  0.0000  0.0000
 7209OM     OM1 7209   2.680   6.902   8.371  0.0000  0.0000  0.0000
 7210OM     OM1 7210   7.180   9.603   9.485  0.0000  0.0000  0.0000
 7211OM     OM1 7211   7.442   9.559   9.472  0.0000  0.0000  0.0000
 7212OM     OM1 7212   7.258   9.366   9.482  0.0000  0.0000  0.0000
 7213OM     OM1 7213   1.584   3.819   9.480  0.0000  0.0000  0.0000
 7214OM     OM1 7214   5.952   3.840   0.038  0.0000  0.0000  0.0000
 7215OM     OM1 7215   6.225   3.836   0.113  0.0000  0.0000  0.0000
 7216OM     OM1 7216   6.054   3.883   9.419  0.0000  0.0000  0.0000
 7217OM     OM1 7217   5.638   2.952   1.281  0.0000  0.0000  0.0000
 7218OM     OM1 7218   6.072   5.784   8.467  0.0000  0.0000  0.0000
 7219OM     OM1 7219   5.861   5.656   8.420  0.0000  0.0000  0.0000
 7220OM     OM1 7220   5.841   5.910   8.492  0.0000  0.0000  0.0000
 7221OM     OM1 7221   5.899   5.737   8.669  0.0000  0.0000  0.0000
 7222OM     OM1 7222   1.183   0.242   1.097  0.0000  0.0000  0.0000
 7223OM     OM1 7223   1.176   0.407   1.289  0.0000  0.0000  0.0000
 7224OM     OM1 7224   2.484   6.030   8.624  0.0000  0.0000  0.0000
 7225OM     OM1 7225   2.666   5.857   8.693  0.0000  0.0000  0.0000
 7226OM     OM1 7226   2.920   5.837   8.638  0.0000  0.0000  0.0000
 7227OM     OM1 7227   1.015   1.664   0.255  0.0000  0.0000  0.0000
 7228OM     OM1 7228   1.356   8.074   0.786  0.0000  0.0000  0.0000
 7229OM     OM1 7229   1.127   7.985   0.920  0.0000  0.0000  0.0000
 7230OM     OM1 7230   1.111   8.144   0.734  0.0000  0.0000  0.0000
 7231OM     OM1 7231   1.201   7.887   0.703  0.0000  0.0000  0.0000
 7232OM     OM1 7232   7.597   2.608   8.542  0.0000  0.0000  0.0000
 7233OM     OM1 7233   7.596   2.594   8.807  0.0000  0.0000  0.0000
 7234OM     OM1 7234   7.379   2.631   8.667  0.0000  0.0000  0.0000
 7235OM     OM1 7235   2.898   1.325   9.428  0.0000  0.0000  0.0000
 7236OM     OM1 7236   3.030   1.136   9.525  0.0000  0.0000  0.0000
 7237OM     OM1 7237   3.057   1.321   0.296  0.0000  0.0000  0.0000
 7238OM     OM1 7238   7.398   2.399   0.759  0.0000  0.0000  0.0000
 7239OM     OM1 7239   7.371   2.648   0.699  0.0000  0.0000  0.0000
 7240OM     OM1 7240   0.764   1.779   9.183  0.0000  0.0000  0.0000
 7241OM     OM1 7241   0.570   1.756   9.341  0.0000  0.0000  0.0000
 7242OM     OM1 7242   0.334   1.807   9.442  0.0000  0.0000  0.0000
 7243OM     OM1 7243   7.065   2.119   8.882  0.0000  0.0000  0.0000
 7244OM     OM1 7244   6.851   2.025   8.775  0.0000  0.0000  0.0000
 7245OM     OM1 7245   4.701   9.112   0.975  0.0000  0.0000  0.0000
 7246OM     OM1 7246   4.694   8.888   0.858  0.0000  0.0000  0.0000
 7247OM     OM1 7247   3.102   4.304   8.607  0.0000  0.0000  0.0000
 7248OM     OM1 7248   2.868   4.354   8.519  0.0000  0.0000  0.0000
 7249OM     OM1 7249   2.991   4.537   8.657  0.0000  0.0000  0.0000
 7250OM     OM1 7250   3.080   4.478   8.415  0.0000  0.0000  0.0000
 7251OM     OM1 7251   1.975   1.174   8.757  0.0000  0.0000  0.0000
 7252OM     OM1 7252   1.845   1.111   8.963  0.0000  0.0000  0.0000
 7253OM     OM1 7253   8.328   3.743   8.725  0.0000  0.0000  0.0000
 7254OM     OM1 7254   1.052   0.844   0.941  0.0000  0.0000  0.0000
 7255OM     OM1 7255   9.593   9.360   8.595  0.0000  0.0000  0.0000
 7256OM     OM1 7256   9.440   9.488   8.753  0.0000  0.0000  0.0000
 7257OM     OM1 7257   6.425   2.067   1.284  0.0000  0.0000  0.0000
 7258OM     OM1 7258   2.216   0.110   8.920  0.0000  0.0000  0.0000
 7259OM     OM1 7259   2.263   0.096   9.179  0.0000  0.0000  0.0000
 7260OM     OM1 7260   9.513   4.097   8.845  0.0000  0.0000  0.0000
 7261OM     OM1 7261   9.464   3.977   9.062  0.0000  0.0000  0.0000
 7262OM     OM1 7262   4.951   5.388   8.424  0.0000  0.0000  0.0000
 7263OM     OM1 7263   4.821   5.182   8.337  0.0000  0.0000  0.0000
 7264OM     OM1 7264   5.070   5.150   8.399  0.0000  0.0000  0.0000
 7265OM     OM1 7265   7.423   5.530   0.420  0.0000  0.0000  0.0000
 7266OM     OM1 7266   7.393   5.389   0.631  0.0000  0.0000  0.0000
 7267OM     OM1 7267   2.299   4.260   8.553  0.0000  0.0000  0.0000
 7268OM     OM1 7268   0.038   8.923   1.315  0.0000  0.0000  0.0000
 7269OM     OM1 7269   6.637   2.571   0.571  0.0000  0.0000  0.0000
 7270OM     OM1 7270   6.504   2.462   0.382  0.0000  0.0000  0.0000
 7271OM     OM1 7271   7.999   5.383   9.148  0.0000  0.0000  0.0000
 7272OM     OM1 7272   8.099   5.192   9.001  0.0000  0.0000  0.0000
 7273OM     OM1 7273   8.140   5.181   9.249  0.0000  0.0000  0.0000
 7274OM     OM1 7274   8.247   5.386   9.113  0.0000  0.0000  0.0000
 7275OM     OM1 7275   9.012   1.303   0.143  0.0000  0.0000  0.0000
 7276OM     OM1 7276   9.239   1.216   0.073  0.0000  0.0000  0.0000
 7277OM     OM1 7277   8.108   0.881   0.739  0.0000  0.0000  0.0000
 7278OM     OM1 7278   7.941   0.843   1.176  0.0000  0.0000  0.0000
 7279OM     OM1 7279   8.049   0.762   0.959  0.0000  0.0000  0.0000
 7280OM     OM1 7280   7.789   0.802   0.967  0.0000  0.0000  0.0000
 7281OM     OM1 7281   1.124   9.031   9.139  0.0000  0.0000  0.0000
 7282OM     OM1 7282   1.180   8.921   9.371  0.0000  0.0000  0.0000
 7283OM     OM1 7283   1.059   9.401   9.467  0.0000  0.0000  0.0000
 7284OM     OM1 7284   0.123   9.038   1.099  0.0000  0.0000  0.0000
 7285OM     OM1 7285   0.287   8.970   1.295  0.0000  0.0000  0.0000
 7286OM     OM1 7286   0.106   9.169   1.329  0.0000  0.0000  0.0000
 7287OM     OM1 7287   1.321   0.634   1.321  0.0000  0.0000  0.0000
 7288OM     OM1 7288   1.188   0.829   1.426  0.0000  0.0000  0.0000
 7289OM     OM1 7289   4.506   0.020   8.706  0.0000  0.0000  0.0000
 7290OM     OM1 7290   4.395   9.415   8.820  0.0000  0.0000  0.0000
 7291OM     OM1 7291   4.440   9.495   8.491  0.0000  0.0000  0.0000
 7292OM     OM1 7292   8.927   3.678   9.395  0.0000  0.0000  0.0000
 7293OM     OM1 7293   8.703   3.784   9.375  0.0000  0.0000  0.0000
 7294OM     OM1 7294   8.846   3.862   9.582  0.0000  0.0000  0.0000
 7295OM     OM1 7295   5.472   0.406   0.325  0.0000  0.0000  0.0000
 7296OM     OM1 7296   5.544   0.620   0.459  0.0000  0.0000  0.0000
 7297OM     OM1 7297   5.291   0.566   0.425  0.0000  0.0000  0.0000
 7298OM     OM1 7298   4.334   7.356   9.571  0.0000  0.0000  0.0000
 7299OM     OM1 7299   4.142   7.444   0.118  0.0000  0.0000  0.0000
 7300OM     OM1 7300   4.222   7.206   0.166  0.0000  0.0000  0.0000
 7301OM     OM1 7301   5.292   1.587   8.292  0.0000  0.0000  0.0000
 7302OM     OM1 7302   5.151   1.770   8.170  0.0000  0.0000  0.0000
 7303OM     OM1 7303   0.512   2.096   8.925  0.0000  0.0000  0.0000
 7304OM     OM1 7304   0.570   1.851   9.002  0.0000  0.0000  0.0000
 7305OM     OM1 7305   0.345   1.948   9.076  0.0000  0.0000  0.0000
 7306OM     OM1 7306   0.633   4.579   9.238  0.0000  0.0000  0.0000
 7307OM     OM1 7307   0.616   4.695   8.996  0.0000  0.0000  0.0000
 7308OM     OM1 7308   0.804   4.523   9.039  0.0000  0.0000  0.0000
 7309OM     OM1 7309   5.428   2.367   8.326  0.0000  0.0000  0.0000
 7310OM     OM1 7310   5.292   2.588   8.340  0.0000  0.0000  0.0000
 7311OM     OM1 7311   5.553   2.583   8.255  0.0000  0.0000  0.0000
 7312OM     OM1 7312   5.490   2.561   8.499  0.0000  0.0000  0.0000
 7313OM     OM1 7313   5.560   7.951   0.729  0.0000  0.0000  0.0000
 7314OM     OM1 7314   5.469   7.853   0.512  0.0000  0.0000  0.0000
 7315OM     OM1 7315   6.102   7.643   0.691  0.0000  0.0000  0.0000
 7316OM     OM1 7316   6.329   7.764   0.763  0.0000  0.0000  0.0000
 7317OM     OM1 7317   3.178   9.061   0.969  0.0000  0.0000  0.0000
 7318OM     OM1 7318   3.299   8.924   0.776  0.0000  0.0000  0.0000
 7319OM     OM1 7319   0.596   4.369   0.788  0.0000  0.0000  0.0000
 7320OM     OM1 7320   0.404   4.188   0.785  0.0000  0.0000  0.0000
 7321OM     OM1 7321   5.803   1.529   8.957  0.0000  0.0000  0.0000
 7322OM     OM1 7322   5.581   1.434   9.022  0.0000  0.0000  0.0000
 7323OM     OM1 7323   0.405   6.981   0.746  0.0000  0.0000  0.0000
 7324OM     OM1 7324   0.253   7.042   0.539  0.0000  0.0000  0.0000
 7325OM     OM1 7325   0.535   6.806   0.604  0.0000  0.0000  0.0000
 7326OM     OM1 7326   7.742   4.306   9.229  0.0000  0.0000  0.0000
 7327OM     OM1 7327   7.590   4.638   9.123  0.0000  0.0000  0.0000
 7328OM     OM1 7328   7.753   4.564   9.298  0.0000  0.0000  0.0000
 7329OM     OM1 7329   1.039   9.413   0.120  0.0000  0.0000  0.0000
 7330OM     OM1 7330   5.471   1.902   0.059  0.0000  0.0000  0.0000
 7331OM     OM1 7331   4.126   1.206   8.846  0.0000  0.0000  0.0000
 7332OM     OM1 7332   3.895   1.217   8.973  0.0000  0.0000  0.0000
 7333OM     OM1 7333   3.913   1.065   8.762  0.0000  0.0000  0.0000
 7334OM     OM1 7334   6.996   7.629   8.788  0.0000  0.0000  0.0000
 7335OM     OM1 7335   7.160   7.489   8.655  0.0000  0.0000  0.0000
 7336OM     OM1 7336   7.116   7.750   8.584  0.0000  0.0000  0.0000
 7337OM     OM1 7337   7.259   7.685   8.784  0.0000  0.0000  0.0000
 7338OM     OM1 7338   3.105   2.329   9.171  0.0000  0.0000  0.0000
 7339OM     OM1 7339   3.294   2.303   8.984  0.0000  0.0000  0.0000
 7340OM     OM1 7340   3.076   2.174   8.957  0.0000  0.0000  0.0000
 7341OM     OM1 7341   4.948   3.147   8.352  0.0000  0.0000  0.0000
 7342OM     OM1 7342   4.760   3.319   8.308  0.0000  0.0000  0.0000
 7343OM     OM1 7343   4.768   3.576   8.334  0.0000  0.0000  0.0000
 7344OM     OM1 7344   4.818   3.423   8.540  0.0000  0.0000  0.0000
 7345OM     OM1 7345   8.286   6.844   0.825  0.0000  0.0000  0.0000
 7346OM     OM1 7346   8.146   6.725   0.653  0.0000  0.0000  0.0000
 7347OM     OM1 7347   8.405   6.741   0.623  0.0000  0.0000  0.0000
 7348OM     OM1 7348   0.213   9.255   1.002  0.0000  0.0000  0.0000
 7349OM     OM1 7349   0.092   9.096   0.829  0.0000  0.0000  0.0000
 7350OM     OM1 7350   0.315   9.024   0.925  0.0000  0.0000  0.0000
 7351OM     OM1 7351   4.610   1.668   9.236  0.0000  0.0000  0.0000
 7352OM     OM1 7352   4.663   1.429   9.262  0.0000  0.0000  0.0000
 7353OM     OM1 7353   4.515   1.498   9.052  0.0000  0.0000  0.0000
 7354OM     OM1 7354   2.788   7.931   0.230  0.0000  0.0000  0.0000
 7355OM     OM1 7355   2.974   7.974   0.411  0.0000  0.0000  0.0000
 7356OM     OM1 7356   2.724   8.064   0.438  0.0000  0.0000  0.0000
 7357OM     OM1 7357   1.590   7.321   9.443  0.0000  0.0000  0.0000
 7358OM     OM1 7358   1.213   7.187   9.546  0.0000  0.0000  0.0000
 7359OM     OM1 7359   1.368   7.240   9.338  0.0000  0.0000  0.0000
 7360OM     OM1 7360   4.233   8.062   0.254  0.0000  0.0000  0.0000
 7361OM     OM1 7361   4.453   8.047   0.410  0.0000  0.0000  0.0000
 7362OM     OM1 7362   4.220   7.958   0.488  0.0000  0.0000  0.0000
 7363OM     OM1 7363   1.514   8.660   1.367  0.0000  0.0000  0.0000
 7364OM     OM1 7364   1.318   8.676   1.204  0.0000  0.0000  0.0000
 7365OM     OM1 7365   1.452   8.884   1.236  0.0000  0.0000  0.0000
 7366OM     OM1 7366   0.392   5.437   0.405  0.0000  0.0000  0.0000
 7367OM     OM1 7367   5.253   2.515   9.093  0.0000  0.0000  0.0000
 7368OM     OM1 7368   5.244   2.869   8.806  0.0000  0.0000  0.0000
 7369OM     OM1 7369   0.137   9.116   8.390  0.0000  0.0000  0.0000
 7370OM     OM1 7370   2.670   3.106   9.541  0.0000  0.0000  0.0000
 7371OM     OM1 7371   2.364   3.344   9.485  0.0000  0.0000  0.0000
 7372OM     OM1 7372   2.468   2.970   0.043  0.0000  0.0000  0.0000
 7373OM     OM1 7373   0.614   9.209   0.436  0.0000  0.0000  0.0000
 7374OM     OM1 7374   0.810   9.465   0.772  0.0000  0.0000  0.0000
 7375OM     OM1 7375   8.882   5.877   8.524  0.0000  0.0000  0.0000
 7376OM     OM1 7376   9.083   5.981   8.389  0.0000  0.0000  0.0000
 7377OM     OM1 7377   0.879   8.292   0.409  0.0000  0.0000  0.0000
 7378OM     OM1 7378   0.952   8.313   0.157  0.0000  0.0000  0.0000
 7379OM     OM1 7379   0.975   8.082   0.284  0.0000  0.0000  0.0000
 7380OM     OM1 7380   0.739   8.176   0.225  0.0000  0.0000  0.0000
 7381OM     OM1 7381   6.770   5.312   0.515  0.0000  0.0000  0.0000
 7382OM     OM1 7382   6.587   5.300   0.338  0.0000  0.0000  0.0000
 7383OM     OM1 7383   6.310   8.121   0.795  0.0000  0.0000  0.0000
 7384OM     OM1 7384   2.225   3.142   9.377  0.0000  0.0000  0.0000
 7385OM     OM1 7385   2.268   2.898   9.277  0.0000  0.0000  0.0000
 7386OM     OM1 7386   2.149   3.082   9.138  0.0000  0.0000  0.0000
 7387OM     OM1 7387   2.031   2.963   9.340  0.0000  0.0000  0.0000
 7388OM     OM1 7388   1.463   8.591   9.318  0.0000  0.0000  0.0000
 7389OM     OM1 7389   1.673   8.735   9.225  0.0000  0.0000  0.0000
 7390OM     OM1 7390   8.301   7.015   0.321  0.0000  0.0000  0.0000
 7391OM     OM1 7391   8.176   7.238   0.256  0.0000  0.0000  0.0000
 7392OM     OM1 7392   0.980   3.304   8.772  0.0000  0.0000  0.0000
 7393OM     OM1 7393   1.072   3.071   8.826  0.0000  0.0000  0.0000
 7394OM     OM1 7394   0.849   5.527   8.843  0.0000  0.0000  0.0000
 7395OM     OM1 7395   0.954   5.320   8.953  0.0000  0.0000  0.0000
 7396OM     OM1 7396   1.038   5.399   8.713  0.0000  0.0000  0.0000
 7397OM     OM1 7397   5.617   2.169   0.463  0.0000  0.0000  0.0000
 7398OM     OM1 7398   5.602   1.921   0.534  0.0000  0.0000  0.0000
 7399OM     OM1 7399   9.085   0.494   8.350  0.0000  0.0000  0.0000
 7400OM     OM1 7400   8.877   0.547   8.504  0.0000  0.0000  0.0000
 7401OM     OM1 7401   7.456   3.804   9.227  0.0000  0.0000  0.0000
 7402OM     OM1 7402   7.541   3.558   9.302  0.0000  0.0000  0.0000
 7403OM     OM1 7403   7.578   3.753   9.455  0.0000  0.0000  0.0000
 7404OM     OM1 7404   7.701   3.732   9.210  0.0000  0.0000  0.0000
 7405OM     OM1 7405   5.321   8.128   9.388  0.0000  0.0000  0.0000
 7406OM     OM1 7406   5.542   8.267   9.404  0.0000  0.0000  0.0000
 7407OM     OM1 7407   5.309   8.372   9.357  0.0000  0.0000  0.0000
 7408OM     OM1 7408   2.839   0.478   1.064  0.0000  0.0000  0.0000
 7409OM     OM1 7409   2.984   0.141   0.813  0.0000  0.0000  0.0000
 7410OM     OM1 7410   2.861   0.522   0.802  0.0000  0.0000  0.0000
 7411OM     OM1 7411   0.993   0.403   9.469  0.0000  0.0000  0.0000
 7412OM     OM1 7412   1.238   0.467   9.381  0.0000  0.0000  0.0000
 7413OM     OM1 7413   1.135   0.593   9.576  0.0000  0.0000  0.0000
 7414OM     OM1 7414   8.130   3.304   0.664  0.0000  0.0000  0.0000
 7415OM     OM1 7415   7.080   8.138   9.060  0.0000  0.0000  0.0000
 7416OM     OM1 7416   6.836   8.195   8.990  0.0000  0.0000  0.0000
 7417OM     OM1 7417   8.462   3.643   8.526  0.0000  0.0000  0.0000
 7418OM     OM1 7418   3.537   6.662   0.510  0.0000  0.0000  0.0000
 7419OM     OM1 7419   3.749   6.792   0.515  0.0000  0.0000  0.0000
 7420OM     OM1 7420   3.537   6.920   0.445  0.0000  0.0000  0.0000
 7421OM     OM1 7421   7.287   5.556   9.371  0.0000  0.0000  0.0000
 7422OM     OM1 7422   7.412   5.542   9.603  0.0000  0.0000  0.0000
 7423OM     OM1 7423   3.064   5.724   9.191  0.0000  0.0000  0.0000
 7424OM     OM1 7424   3.009   9.535   0.683  0.0000  0.0000  0.0000
 7425OM     OM1 7425   3.226   0.026   0.791  0.0000  0.0000  0.0000
 7426OM     OM1 7426   3.112   0.157   0.592  0.0000  0.0000  0.0000
 7427OM     OM1 7427   1.307   6.752   8.382  0.0000  0.0000  0.0000
 7428OM     OM1 7428   1.112   6.880   8.499  0.0000  0.0000  0.0000
 7429OM     OM1 7429   1.140   6.619   8.521  0.0000  0.0000  0.0000
 7430OM     OM1 7430   2.806   4.700   8.589  0.0000  0.0000  0.0000
 7431OM     OM1 7431   3.176   4.941   8.667  0.0000  0.0000  0.0000
 7432OM     OM1 7432   2.995   4.784   8.755  0.0000  0.0000  0.0000
 7433OM     OM1 7433   5.724   7.457   1.262  0.0000  0.0000  0.0000
 7434OM     OM1 7434   8.578   6.222   0.511  0.0000  0.0000  0.0000
 7435OM     OM1 7435   8.569   6.479   0.582  0.0000  0.0000  0.0000
 7436OM     OM1 7436   8.554   6.289   0.752  0.0000  0.0000  0.0000
 7437OM     OM1 7437   5.514   4.690   9.580  0.0000  0.0000  0.0000
 7438OM     OM1 7438   5.611   4.926   9.548  0.0000  0.0000  0.0000
 7439OM     OM1 7439   5.474   4.859   0.162  0.0000  0.0000  0.0000
 7440OM     OM1 7440   5.040   2.668   8.401  0.0000  0.0000  0.0000
 7441OM     OM1 7441   5.090   2.424   8.338  0.0000  0.0000  0.0000
 7442OM     OM1 7442   5.225   8.698   1.099  0.0000  0.0000  0.0000
 7443OM     OM1 7443   0.603   6.248   9.322  0.0000  0.0000  0.0000
 7444OM     OM1 7444   0.366   6.236   9.432  0.0000  0.0000  0.0000
 7445OM     OM1 7445   0.567   6.359   9.559  0.0000  0.0000  0.0000
 7446OM     OM1 7446   2.202   3.598   8.680  0.0000  0.0000  0.0000
 7447OM     OM1 7447   3.039   2.636   8.765  0.0000  0.0000  0.0000
 7448OM     OM1 7448   3.244   2.477   8.794  0.0000  0.0000  0.0000
 7449OM     OM1 7449   3.299   8.071   8.304  0.0000  0.0000  0.0000
 7450OM     OM1 7450   3.241   8.083   8.553  0.0000  0.0000  0.0000
 7451OM     OM1 7451   8.903   9.376   9.362  0.0000  0.0000  0.0000
 7452OM     OM1 7452   8.782   9.499   8.946  0.0000  0.0000  0.0000
 7453OM     OM1 7453   8.832   9.299   9.088  0.0000  0.0000  0.0000
 7454OM     OM1 7454   2.952   2.168   0.800  0.0000  0.0000  0.0000
 7455OM     OM1 7455   3.114   1.983   0.707  0.0000  0.0000  0.0000
 7456OM     OM1 7456   3.076   2.026   0.970  0.0000  0.0000  0.0000
 7457OM     OM1 7457   5.078   4.011   1.247  0.0000  0.0000  0.0000
 7458OM     OM1 7458   4.990   4.048   1.008  0.0000  0.0000  0.0000
 7459OM     OM1 7459   0.236   1.158   8.638  0.0000  0.0000  0.0000
 7460OM     OM1 7460   0.104   1.382   8.604  0.0000  0.0000  0.0000
 7461OM     OM1 7461   9.592   1.195   8.720  0.0000  0.0000  0.0000
 7462OM     OM1 7462   5.598   0.841   0.592  0.0000  0.0000  0.0000
 7463OM     OM1 7463   5.570   1.021   0.785  0.0000  0.0000  0.0000
 7464OM     OM1 7464   6.634   2.175   8.752  0.0000  0.0000  0.0000
 7465OM     OM1 7465   6.588   2.424   8.706  0.0000  0.0000  0.0000
 7466OM     OM1 7466   6.381   2.276   8.760  0.0000  0.0000  0.0000
 7467OM     OM1 7467   0.417   0.355   9.440  0.0000  0.0000  0.0000
 7468OM     OM1 7468   0.516   0.295   9.214  0.0000  0.0000  0.0000
 7469OM     OM1 7469   6.019   8.831   0.723  0.0000  0.0000  0.0000
 7470OM     OM1 7470   7.866   1.449   8.327  0.0000  0.0000  0.0000
 7471OM     OM1 7471   1.577   1.039   9.094  0.0000  0.0000  0.0000
 7472OM     OM1 7472   2.169   6.820   1.274  0.0000  0.0000  0.0000
 7473OM     OM1 7473   7.763   5.319   9.093  0.0000  0.0000  0.0000
 7474OM     OM1 7474   0.980   0.501   8.569  0.0000  0.0000  0.0000
 7475OM     OM1 7475   1.084   0.640   8.753  0.0000  0.0000  0.0000
 7476OM     OM1 7476   1.087   0.747   8.531  0.0000  0.0000  0.0000
 7477OM     OM1 7477   0.851   0.725   8.626  0.0000  0.0000  0.0000
 7478OM     OM1 7478   8.384   8.032   0.402  0.0000  0.0000  0.0000
 7479OM     OM1 7479   0.586   4.196   0.127  0.0000  0.0000  0.0000
 7480OM     OM1 7480   0.547   3.935   0.063  0.0000  0.0000  0.0000
 7481OM     OM1 7481   1.163   5.926   0.662  0.0000  0.0000  0.0000
 7482OM     OM1 7482   1.020   5.760   0.792  0.0000  0.0000  0.0000
 7483OM     OM1 7483   0.898   5.870   0.600  0.0000  0.0000  0.0000
 7484OM     OM1 7484   4.359   4.525   0.437  0.0000  0.0000  0.0000
 7485OM     OM1 7485   3.012   2.039   8.449  0.0000  0.0000  0.0000
 7486OM     OM1 7486   2.940   1.790   8.490  0.0000  0.0000  0.0000
 7487OM     OM1 7487   2.139   6.620   8.853  0.0000  0.0000  0.0000
 7488OM     OM1 7488   2.060   6.589   8.615  0.0000  0.0000  0.0000
 7489OM     OM1 7489   2.184   6.392   8.745  0.0000  0.0000  0.0000
 7490OM     OM1 7490   9.257   0.686   8.351  0.0000  0.0000  0.0000
 7491OM     OM1 7491   9.258   0.625   8.606  0.0000  0.0000  0.0000
 7492OM     OM1 7492   9.218   0.874   8.529  0.0000  0.0000  0.0000
 7493OM     OM1 7493   3.284   8.786   1.276  0.0000  0.0000  0.0000
 7494OM     OM1 7494   3.261   8.682   1.032  0.0000  0.0000  0.0000
 7495OM     OM1 7495   1.375   6.502   0.781  0.0000  0.0000  0.0000
 7496OM     OM1 7496   1.131   6.401   0.779  0.0000  0.0000  0.0000
 7497OM     OM1 7497   6.845   4.859   0.988  0.0000  0.0000  0.0000
 7498OM     OM1 7498   3.171   9.605   9.595  0.0000  0.0000  0.0000
 7499OM     OM1 7499   3.195   0.208   0.161  0.0000  0.0000  0.0000
 7500OM     OM1 7500   3.392   0.142   0.004  0.0000  0.0000  0.0000
 7501OM     OM1 7501   3.167   0.242   9.510  0.0000  0.0000  0.0000
 7502OM     OM1 7502   5.951   2.570   9.315  0.0000  0.0000  0.0000
 7503OM     OM1 7503   6.196   2.678   9.314  0.0000  0.0000  0.0000
 7504OM     OM1 7504   5.991   2.820   9.300  0.0000  0.0000  0.0000
 7505OM     OM1 7505   9.564   7.524   8.821  0.0000  0.0000  0.0000
 7506OM     OM1 7506   0.070   7.749   8.828  0.0000  0.0000  0.0000
 7507OM     OM1 7507   6.016   7.379   8.816  0.0000  0.0000  0.0000
 7508OM     OM1 7508   6.229   7.442   8.689  0.0000  0.0000  0.0000
 7509OM     OM1 7509   6.307   7.314   8.473  0.0000  0.0000  0.0000
 7510OM     OM1 7510   4.153   7.857   1.436  0.0000  0.0000  0.0000
 7511OM     OM1 7511   6.424   3.219   0.661  0.0000  0.0000  0.0000
 7512OM     OM1 7512   6.277   2.993   0.723  0.0000  0.0000  0.0000
 7513OM     OM1 7513   8.502   5.017   0.727  0.0000  0.0000  0.0000
 7514OM     OM1 7514   8.313   4.901   0.588  0.0000  0.0000  0.0000
 7515OM     OM1 7515   8.338   4.918   1.056  0.0000  0.0000  0.0000
 7516OM     OM1 7516   8.365   6.137   0.808  0.0000  0.0000  0.0000
 7517OM     OM1 7517   8.567   6.160   0.982  0.0000  0.0000  0.0000
 7518OM     OM1 7518   3.122   9.393   0.132  0.0000  0.0000  0.0000
 7519OM     OM1 7519   3.164   9.292   0.382  0.0000  0.0000  0.0000
 7520OM     OM1 7520   4.584   6.497   9.356  0.0000  0.0000  0.0000
 7521OM     OM1 7521   4.444   6.323   9.217  0.0000  0.0000  0.0000
 7522OM     OM1 7522   4.207   6.359   9.098  0.0000  0.0000  0.0000
 7523OM     OM1 7523   7.189   0.646   8.799  0.0000  0.0000  0.0000
 7524OM     OM1 7524   6.970   0.723   8.694  0.0000  0.0000  0.0000
 7525OM     OM1 7525   7.154   0.600   8.543  0.0000  0.0000  0.0000
 7526OM     OM1 7526   6.048   6.163   9.517  0.0000  0.0000  0.0000
 7527OM     OM1 7527   6.120   5.917   9.584  0.0000  0.0000  0.0000
 7528OM     OM1 7528   6.628   8.126   8.369  0.0000  0.0000  0.0000
 7529OM     OM1 7529   6.715   8.374   8.385  0.0000  0.0000  0.0000
 7530OM     OM1 7530   8.664   5.229   9.465  0.0000  0.0000  0.0000
 7531OM     OM1 7531   8.475   5.424   9.474  0.0000  0.0000  0.0000
 7532OM     OM1 7532   8.612   5.349   0.076  0.0000  0.0000  0.0000
 7533OM     OM1 7533   5.788   8.460   0.960  0.0000  0.0000  0.0000
 7534OM     OM1 7534   5.934   8.657   1.074  0.0000  0.0000  0.0000
 7535OM     OM1 7535   0.016   2.733   0.479  0.0000  0.0000  0.0000
 7536OM     OM1 7536   3.205   8.246   9.285  0.0000  0.0000  0.0000
 7537OM     OM1 7537   3.462   8.228   9.264  0.0000  0.0000  0.0000
 7538OM     OM1 7538   8.360   4.891   0.060  0.0000  0.0000  0.0000
 7539OM     OM1 7539   6.973   4.623   0.916  0.0000  0.0000  0.0000
 7540OM     OM1 7540   6.889   4.763   0.737  0.0000  0.0000  0.0000
 7541OM     OM1 7541   5.692   3.325   9.408  0.0000  0.0000  0.0000
 7542OM     OM1 7542   5.497   3.204   9.521  0.0000  0.0000  0.0000
 7543OM     OM1 7543   5.513   3.203   9.261  0.0000  0.0000  0.0000
 7544OM     OM1 7544   7.178   9.359   9.055  0.0000  0.0000  0.0000
 7545OM     OM1 7545   2.548   2.988   0.914  0.0000  0.0000  0.0000
 7546OM     OM1 7546   2.793   3.061   0.903  0.0000  0.0000  0.0000
 7547OM     OM1 7547   9.389   3.614   8.646  0.0000  0.0000  0.0000
 7548OM     OM1 7548   3.777   6.292   0.442  0.0000  0.0000  0.0000
 7549OM     OM1 7549   3.832   6.537   0.528  0.0000  0.0000  0.0000
 7550OM     OM1 7550   3.937   6.333   0.646  0.0000  0.0000  0.0000
 7551OM     OM1 7551   8.300   5.141   8.317  0.0000  0.0000  0.0000
 7552OM     OM1 7552   8.348   5.060   8.551  0.0000  0.0000  0.0000
 7553OM     OM1 7553   1.444   6.525   9.412  0.0000  0.0000  0.0000
 7554OM     OM1 7554   1.418   6.757   9.522  0.0000  0.0000  0.0000
 7555OM     OM1 7555   6.396   8.693   8.929  0.0000  0.0000  0.0000
 7556OM     OM1 7556   0.690   5.843   0.746  0.0000  0.0000  0.0000
 7557OM     OM1 7557   0.794   5.633   0.624  0.0000  0.0000  0.0000
 7558OM     OM1 7558   0.658   5.802   0.489  0.0000  0.0000  0.0000
 7559OM     OM1 7559   5.908   3.835   8.338  0.0000  0.0000  0.0000
 7560OM     OM1 7560   1.027   4.898   0.545  0.0000  0.0000  0.0000
 7561OM     OM1 7561   0.959   5.148   0.464  0.0000  0.0000  0.0000
 7562OM     OM1 7562   0.910   4.940   0.323  0.0000  0.0000  0.0000
 7563OM     OM1 7563   1.159   5.016   0.358  0.0000  0.0000  0.0000
 7564OM     OM1 7564   9.514   7.641   0.241  0.0000  0.0000  0.0000
 7565OM     OM1 7565   0.058   7.846   0.200  0.0000  0.0000  0.0000
 7566OM     OM1 7566   7.657   3.777   0.098  0.0000  0.0000  0.0000
 7567OM     OM1 7567   1.660   7.370   0.982  0.0000  0.0000  0.0000
 7568OM     OM1 7568   1.545   7.250   1.183  0.0000  0.0000  0.0000
 7569OM     OM1 7569   1.709   7.380   0.725  0.0000  0.0000  0.0000
 7570OM     OM1 7570   6.341   9.402   9.321  0.0000  0.0000  0.0000
 7571OM     OM1 7571   6.087   9.394   9.389  0.0000  0.0000  0.0000
 7572OM     OM1 7572   5.985   9.430   9.156  0.0000  0.0000  0.0000
 7573OM     OM1 7573   1.534   4.714   0.834  0.0000  0.0000  0.0000
 7574OM     OM1 7574   1.535   4.753   0.581  0.0000  0.0000  0.0000
 7575OM     OM1 7575   1.762   4.696   0.685  0.0000  0.0000  0.0000
 7576OM     OM1 7576   8.888   1.556   9.095  0.0000  0.0000  0.0000
 7577OM     OM1 7577   8.754   1.358   9.194  0.0000  0.0000  0.0000
 7578OM     OM1 7578   4.398   3.092   0.537  0.0000  0.0000  0.0000
 7579OM     OM1 7579   1.936   9.280   8.537  0.0000  0.0000  0.0000
 7580OM     OM1 7580   1.816   9.117   8.381  0.0000  0.0000  0.0000
 7581OM     OM1 7581   1.990   9.019   8.546  0.0000  0.0000  0.0000
 7582OM     OM1 7582   2.627   8.725   8.715  0.0000  0.0000  0.0000
 7583OM     OM1 7583   2.528   1.471   9.232  0.0000  0.0000  0.0000
 7584OM     OM1 7584   0.414   5.840   0.566  0.0000  0.0000  0.0000
 7585OM     OM1 7585   0.173   5.919   0.566  0.0000  0.0000  0.0000
 7586OM     OM1 7586   5.532   8.256   8.601  0.0000  0.0000  0.0000
 7587OM     OM1 7587   5.413   8.329   8.834  0.0000  0.0000  0.0000
 7588OM     OM1 7588   4.762   1.673   9.461  0.0000  0.0000  0.0000
 7589OM     OM1 7589   4.507   1.641   9.474  0.0000  0.0000  0.0000
 7590OM     OM1 7590   4.600   1.870   9.388  0.0000  0.0000  0.0000
 7591OM     OM1 7591   8.114   5.133   9.493  0.0000  0.0000  0.0000
 7592OM     OM1 7592   8.229   5.373   9.547  0.0000  0.0000  0.0000
 7593OM     OM1 7593   8.342   5.147   9.601  0.0000  0.0000  0.0000
 7594OM     OM1 7594   7.789   7.269   8.677  0.0000  0.0000  0.0000
 7595OM     OM1 7595   7.624   7.199   8.867  0.0000  0.0000  0.0000
 7596OM     OM1 7596   7.713   7.030   8.665  0.0000  0.0000  0.0000
 7597OM     OM1 7597   5.207   6.696   8.454  0.0000  0.0000  0.0000
 7598OM     OM1 7598   4.946   6.599   8.408  0.0000  0.0000  0.0000
 7599OM     OM1 7599   2.540   2.974   0.651  0.0000  0.0000  0.0000
 7600OM     OM1 7600   2.710   2.987   0.445  0.0000  0.0000  0.0000
 7601OM     OM1 7601   7.396   6.687   0.528  0.0000  0.0000  0.0000
 7602OM     OM1 7602   7.425   6.919   0.400  0.0000  0.0000  0.0000
 7603OM     OM1 7603   4.098   3.192   8.877  0.0000  0.0000  0.0000
 7604OM     OM1 7604   4.297   3.515   8.731  0.0000  0.0000  0.0000
 7605OM     OM1 7605   4.289   3.252   8.703  0.0000  0.0000  0.0000
 7606OM     OM1 7606   4.092   3.388   8.641  0.0000  0.0000  0.0000
 7607OM     OM1 7607   9.243   6.870   9.078  0.0000  0.0000  0.0000
 7608OM     OM1 7608   3.008   0.334   8.958  0.0000  0.0000  0.0000
 7609OM     OM1 7609   3.247   0.422   8.932  0.0000  0.0000  0.0000
 7610OM     OM1 7610   7.315   6.783   0.741  0.0000  0.0000  0.0000
 7611OM     OM1 7611   1.540   4.359   1.106  0.0000  0.0000  0.0000
 7612OM     OM1 7612   3.081   3.486   0.773  0.0000  0.0000  0.0000
 7613OM     OM1 7613   3.102   3.360   1.024  0.0000  0.0000  0.0000
 7614OM     OM1 7614   3.330   3.323   1.129  0.0000  0.0000  0.0000
 7615OM     OM1 7615   3.594   7.083   8.804  0.0000  0.0000  0.0000
 7616OM     OM1 7616   3.460   7.306   8.847  0.0000  0.0000  0.0000
 7617OM     OM1 7617   3.347   7.062   8.863  0.0000  0.0000  0.0000
 7618OM     OM1 7618   3.510   3.233   8.686  0.0000  0.0000  0.0000
 7619OM     OM1 7619   3.382   3.160   8.893  0.0000  0.0000  0.0000
 7620OM     OM1 7620   3.358   3.408   8.815  0.0000  0.0000  0.0000
 7621OM     OM1 7621   7.801   0.258   0.560  0.0000  0.0000  0.0000
 7622OM     OM1 7622   7.648   0.278   0.759  0.0000  0.0000  0.0000
 7623OM     OM1 7623   7.772   0.499   0.653  0.0000  0.0000  0.0000
 7624OM     OM1 7624   2.656   0.961   8.195  0.0000  0.0000  0.0000
 7625OM     OM1 7625   2.876   0.839   8.279  0.0000  0.0000  0.0000
 7626OM     OM1 7626   2.788   1.058   8.395  0.0000  0.0000  0.0000
 7627OM     OM1 7627   2.933   6.888   8.298  0.0000  0.0000  0.0000
 7628OM     OM1 7628   2.818   6.677   8.383  0.0000  0.0000  0.0000
 7629OM     OM1 7629   4.818   2.379   9.164  0.0000  0.0000  0.0000
 7630OM     OM1 7630   4.776   2.612   9.056  0.0000  0.0000  0.0000
 7631OM     OM1 7631   4.787   2.418   8.891  0.0000  0.0000  0.0000
 7632OM     OM1 7632   2.701   4.302   8.814  0.0000  0.0000  0.0000
 7633OM     OM1 7633   2.461   4.204   8.744  0.0000  0.0000  0.0000
 7634OM     OM1 7634   2.513   4.462   8.740  0.0000  0.0000  0.0000
 7635OM     OM1 7635   2.625   4.291   8.570  0.0000  0.0000  0.0000
 7636OM     OM1 7636   6.244   6.618   1.253  0.0000  0.0000  0.0000
 7637OM     OM1 7637   7.482   7.284   1.099  0.0000  0.0000  0.0000
 7638OM     OM1 7638   7.683   7.143   1.169  0.0000  0.0000  0.0000
 7639OM     OM1 7639   7.721   7.406   1.103  0.0000  0.0000  0.0000
 7640OM     OM1 7640   5.464   1.972   0.742  0.0000  0.0000  0.0000
 7641OM     OM1 7641   5.719   1.926   0.769  0.0000  0.0000  0.0000
 7642OM     OM1 7642   2.325   0.941   9.493  0.0000  0.0000  0.0000
 7643OM     OM1 7643   2.128   0.797   9.380  0.0000  0.0000  0.0000
 7644OM     OM1 7644   7.762   5.145   8.672  0.0000  0.0000  0.0000
 7645OM     OM1 7645   7.802   4.913   8.781  0.0000  0.0000  0.0000
 7646OM     OM1 7646   7.627   4.744   8.701  0.0000  0.0000  0.0000
 7647OM     OM1 7647   8.037   3.525   9.572  0.0000  0.0000  0.0000
 7648OM     OM1 7648   8.250   3.672   9.567  0.0000  0.0000  0.0000
 7649OM     OM1 7649   5.567   2.768   0.374  0.0000  0.0000  0.0000
 7650OM     OM1 7650   5.557   2.918   0.593  0.0000  0.0000  0.0000
 7651OM     OM1 7651   7.971   2.015   0.080  0.0000  0.0000  0.0000
 7652OM     OM1 7652   7.995   2.144   9.461  0.0000  0.0000  0.0000
 7653OM     OM1 7653   7.968   2.280   0.075  0.0000  0.0000  0.0000
 7654OM     OM1 7654   6.941   3.318   0.535  0.0000  0.0000  0.0000
 7655OM     OM1 7655   0.706   4.155   9.173  0.0000  0.0000  0.0000
 7656OM     OM1 7656   0.362   3.960   8.888  0.0000  0.0000  0.0000
 7657OM     OM1 7657   1.318   1.260   8.476  0.0000  0.0000  0.0000
 7658OM     OM1 7658   1.240   0.913   8.675  0.0000  0.0000  0.0000
 7659OM     OM1 7659   8.303   0.812   8.761  0.0000  0.0000  0.0000
 7660OM     OM1 7660   8.061   0.904   8.815  0.0000  0.0000  0.0000
 7661OM     OM1 7661   0.887   7.673   8.311  0.0000  0.0000  0.0000
 7662OM     OM1 7662   0.637   7.609   8.370  0.0000  0.0000  0.0000
 7663OM     OM1 7663   1.122   7.783   8.328  0.0000  0.0000  0.0000
 7664OM     OM1 7664   8.811   1.045   1.266  0.0000  0.0000  0.0000
 7665OM     OM1 7665   1.779   7.787   8.481  0.0000  0.0000  0.0000
 7666OM     OM1 7666   1.843   7.636   8.290  0.0000  0.0000  0.0000
 7667OM     OM1 7667   5.166   1.727   8.756  0.0000  0.0000  0.0000
 7668OM     OM1 7668   0.471   1.094   8.750  0.0000  0.0000  0.0000
 7669OM     OM1 7669   0.260   0.844   8.795  0.0000  0.0000  0.0000
 7670OM     OM1 7670   3.766   5.430   0.747  0.0000  0.0000  0.0000
 7671OM     OM1 7671   3.329   5.502   0.783  0.0000  0.0000  0.0000
 7672OM     OM1 7672   3.461   5.299   0.717  0.0000  0.0000  0.0000
 7673OM     OM1 7673   3.961   3.595   8.745  0.0000  0.0000  0.0000
 7674OM     OM1 7674   0.076   2.378   9.313  0.0000  0.0000  0.0000
 7675OM     OM1 7675   9.350   5.334   9.246  0.0000  0.0000  0.0000
 7676OM     OM1 7676   9.338   5.574   9.331  0.0000  0.0000  0.0000
 7677OM     OM1 7677   9.415   5.527   9.086  0.0000  0.0000  0.0000
 7678OM     OM1 7678   3.018   6.955   8.842  0.0000  0.0000  0.0000
 7679OM     OM1 7679   3.073   6.866   8.596  0.0000  0.0000  0.0000
 7680OM     OM1 7680   2.959   7.092   8.616  0.0000  0.0000  0.0000
 7681OM     OM1 7681   3.202   6.502   0.796  0.0000  0.0000  0.0000
 7682OM     OM1 7682   3.123   6.682   0.615  0.0000  0.0000  0.0000
 7683OM     OM1 7683   2.175   9.562   0.074  0.0000  0.0000  0.0000
 7684OM     OM1 7684   2.423   9.586   9.592  0.0000  0.0000  0.0000
 7685OM     OM1 7685   2.229   0.054   9.438  0.0000  0.0000  0.0000
 7686OM     OM1 7686   7.165   8.775   8.309  0.0000  0.0000  0.0000
 7687OM     OM1 7687   7.118   9.487   8.388  0.0000  0.0000  0.0000
 7688OM     OM1 7688   7.285   0.047   8.491  0.0000  0.0000  0.0000
 7689OM     OM1 7689   6.386   2.986   0.418  0.0000  0.0000  0.0000
 7690OM     OM1 7690   6.647   2.928   0.435  0.0000  0.0000  0.0000
 7691OM     OM1 7691   2.520   4.774   0.632  0.0000  0.0000  0.0000
 7692OM     OM1 7692   2.742   4.766   0.764  0.0000  0.0000  0.0000
 7693OM     OM1 7693   6.673   8.040   9.120  0.0000  0.0000  0.0000
 7694OM     OM1 7694   6.359   8.230   9.154  0.0000  0.0000  0.0000
 7695OM     OM1 7695   6.607   8.289   9.107  0.0000  0.0000  0.0000
 7696OM     OM1 7696   6.497   8.399   9.317  0.0000  0.0000  0.0000
 7697OM     OM1 7697   8.072   6.544   9.114  0.0000  0.0000  0.0000
 7698OM     OM1 7698   7.862   6.451   9.234  0.0000  0.0000  0.0000
 7699OM     OM1 7699   8.095   6.805   9.182  0.0000  0.0000  0.0000
 7700OM     OM1 7700   7.903   3.174   0.243  0.0000  0.0000  0.0000
 7701OM     OM1 7701   8.081   2.989   0.155  0.0000  0.0000  0.0000
 7702OM     OM1 7702   0.816   4.240   0.239  0.0000  0.0000  0.0000
 7703OM     OM1 7703   0.619   4.393   0.304  0.0000  0.0000  0.0000
 7704OM     OM1 7704   5.154   3.776   0.316  0.0000  0.0000  0.0000
 7705OM     OM1 7705   4.923   3.797   0.440  0.0000  0.0000  0.0000
 7706OM     OM1 7706   9.405   0.668   8.821  0.0000  0.0000  0.0000
 7707OM     OM1 7707   9.326   0.425   8.757  0.0000  0.0000  0.0000
 7708OM     OM1 7708   6.248   8.347   1.255  0.0000  0.0000  0.0000
 7709OM     OM1 7709   6.307   8.187   1.043  0.0000  0.0000  0.0000
 7710OM     OM1 7710   6.068   8.231   1.109  0.0000  0.0000  0.0000
 7711OM     OM1 7711   5.385   7.886   8.368  0.0000  0.0000  0.0000
 7712OM     OM1 7712   5.226   8.096   8.384  0.0000  0.0000  0.0000
 7713OM     OM1 7713   0.286   3.270   0.893  0.0000  0.0000  0.0000
 7714OM     OM1 7714   0.369   3.341   1.134  0.0000  0.0000  0.0000
 7715OM     OM1 7715   6.298   3.640   0.540  0.0000  0.0000  0.0000
 7716OM     OM1 7716   6.297   3.877   0.443  0.0000  0.0000  0.0000
 7717OM     OM1 7717   6.252   3.846   0.696  0.0000  0.0000  0.0000
 7718OM     OM1 7718   3.894   3.942   9.200  0.0000  0.0000  0.0000
 7719OM     OM1 7719   3.696   3.878   9.356  0.0000  0.0000  0.0000
 7720OM     OM1 7720   3.885   3.704   9.314  0.0000  0.0000  0.0000
 7721OM     OM1 7721   9.370   0.153   8.767  0.0000  0.0000  0.0000
 7722OM     OM1 7722   6.602   2.503   9.447  0.0000  0.0000  0.0000
 7723OM     OM1 7723   6.769   2.341   9.574  0.0000  0.0000  0.0000
 7724OM     OM1 7724   6.867   2.540   9.443  0.0000  0.0000  0.0000
 7725OM     OM1 7725   6.733   2.582   0.057  0.0000  0.0000  0.0000
 7726OM     OM1 7726   8.692   1.059   1.041  0.0000  0.0000  0.0000
 7727OM     OM1 7727   8.455   1.152   1.000  0.0000  0.0000  0.0000
 7728OM     OM1 7728   8.614   1.071   0.805  0.0000  0.0000  0.0000
 7729OM     OM1 7729   4.401   1.213   1.040  0.0000  0.0000  0.0000
 7730OM     OM1 7730   4.166   1.152   1.118  0.0000  0.0000  0.0000
 7731OM     OM1 7731   9.514   9.306   0.445  0.0000  0.0000  0.0000
 7732OM     OM1 7732   9.008   7.548   1.340  0.0000  0.0000  0.0000
 7733OM     OM1 7733   9.210   7.630   1.208  0.0000  0.0000  0.0000
 7734OM     OM1 7734   9.148   7.377   1.178  0.0000  0.0000  0.0000
 7735OM     OM1 7735   6.353   1.401   0.465  0.0000  0.0000  0.0000
 7736OM     OM1 7736   6.404   1.320   0.229  0.0000  0.0000  0.0000
 7737OM     OM1 7737   6.512   1.540   0.317  0.0000  0.0000  0.0000
 7738OM     OM1 7738   6.909   0.804   0.395  0.0000  0.0000  0.0000
 7739OM     OM1 7739   6.877   1.264   0.290  0.0000  0.0000  0.0000
 7740OM     OM1 7740   6.703   0.860   0.243  0.0000  0.0000  0.0000
 7741OM     OM1 7741   3.664   2.225   8.668  0.0000  0.0000  0.0000
 7742OM     OM1 7742   3.472   2.062   8.601  0.0000  0.0000  0.0000
 7743OM     OM1 7743   3.419   2.284   8.753  0.0000  0.0000  0.0000
 7744OM     OM1 7744   3.554   2.088   8.844  0.0000  0.0000  0.0000
 7745OM     OM1 7745   4.478   5.220   9.336  0.0000  0.0000  0.0000
 7746OM     OM1 7746   3.564   1.339   0.313  0.0000  0.0000  0.0000
 7747OM     OM1 7747   3.731   1.430   0.485  0.0000  0.0000  0.0000
 7748OM     OM1 7748   3.474   1.535   0.458  0.0000  0.0000  0.0000
 7749OM     OM1 7749   3.664   1.573   0.282  0.0000  0.0000  0.0000
 7750OM     OM1 7750   2.314   2.766   9.587  0.0000  0.0000  0.0000
 7751OM     OM1 7751   2.379   2.678   9.348  0.0000  0.0000  0.0000
 7752OM     OM1 7752   4.382   1.900   0.478  0.0000  0.0000  0.0000
 7753OM     OM1 7753   4.574   1.790   0.353  0.0000  0.0000  0.0000
 7754OM     OM1 7754   4.481   2.036   0.287  0.0000  0.0000  0.0000
 7755OM     OM1 7755   9.199   5.508   0.811  0.0000  0.0000  0.0000
 7756OM     OM1 7756   9.449   5.537   0.904  0.0000  0.0000  0.0000
 7757OM     OM1 7757   9.269   5.728   0.910  0.0000  0.0000  0.0000
 7758OM     OM1 7758   5.297   7.104   0.830  0.0000  0.0000  0.0000
 7759OM     OM1 7759   5.132   7.416   0.965  0.0000  0.0000  0.0000
 7760OM     OM1 7760   7.426   9.279   0.451  0.0000  0.0000  0.0000
 7761OM     OM1 7761   7.696   9.560   0.180  0.0000  0.0000  0.0000
 7762OM     OM1 7762   1.116   8.805   1.107  0.0000  0.0000  0.0000
 7763OM     OM1 7763   1.081   8.600   1.263  0.0000  0.0000  0.0000
 7764OM     OM1 7764   0.903   8.717   1.004  0.0000  0.0000  0.0000
 7765OM     OM1 7765   8.880   0.594   8.760  0.0000  0.0000  0.0000
 7766OM     OM1 7766   8.877   0.206   8.756  0.0000  0.0000  0.0000
 7767OM     OM1 7767   9.133   0.265   8.780  0.0000  0.0000  0.0000
 7768OM     OM1 7768   5.292   2.349   9.287  0.0000  0.0000  0.0000
 7769OM     OM1 7769   6.335   4.897   8.395  0.0000  0.0000  0.0000
 7770OM     OM1 7770   6.317   5.112   8.231  0.0000  0.0000  0.0000
 7771OM     OM1 7771   3.893   0.872   1.238  0.0000  0.0000  0.0000
 7772OM     OM1 7772   3.831   0.627   1.276  0.0000  0.0000  0.0000
 7773OM     OM1 7773   3.852   0.712   1.035  0.0000  0.0000  0.0000
 7774OM     OM1 7774   9.003   7.125   0.665  0.0000  0.0000  0.0000
 7775OM     OM1 7775   9.154   6.814   0.443  0.0000  0.0000  0.0000
 7776OM     OM1 7776   9.211   6.969   0.651  0.0000  0.0000  0.0000
 7777OM     OM1 7777   8.144   6.017   0.735  0.0000  0.0000  0.0000
 7778OM     OM1 7778   2.361   8.855   0.495  0.0000  0.0000  0.0000
 7779OM     OM1 7779   2.519   9.052   0.555  0.0000  0.0000  0.0000
 7780OM     OM1 7780   7.964   4.413   9.307  0.0000  0.0000  0.0000
 7781OM     OM1 7781   7.773   4.817   9.230  0.0000  0.0000  0.0000
 7782OM     OM1 7782   7.853   4.489   9.075  0.0000  0.0000  0.0000
 7783OM     OM1 7783   1.212   8.386   1.223  0.0000  0.0000  0.0000
 7784OM     OM1 7784   0.946   8.152   0.996  0.0000  0.0000  0.0000
 7785OM     OM1 7785   0.964   8.371   1.159  0.0000  0.0000  0.0000
 7786OM     OM1 7786   7.368   4.076   0.907  0.0000  0.0000  0.0000
 7787OM     OM1 7787   7.626   4.092   0.949  0.0000  0.0000  0.0000
 7788OM     OM1 7788   8.993   0.944   8.404  0.0000  0.0000  0.0000
 7789OM     OM1 7789   9.019   1.010   8.654  0.0000  0.0000  0.0000
 7790OM     OM1 7790   9.000   0.760   8.587  0.0000  0.0000  0.0000
 7791OM     OM1 7791   2.827   2.725   0.214  0.0000  0.0000  0.0000
 7792OM     OM1 7792   8.570   9.276   9.104  0.0000  0.0000  0.0000
 7793OM     OM1 7793   9.005   4.917   9.432  0.0000  0.0000  0.0000
 7794OM     OM1 7794   8.994   4.884   0.076  0.0000  0.0000  0.0000
 7795OM     OM1 7795   8.844   5.069   9.580  0.0000  0.0000  0.0000
 7796OM     OM1 7796   1.496   5.541   0.478  0.0000  0.0000  0.0000
 7797OM     OM1 7797   1.734   5.469   0.521  0.0000  0.0000  0.0000
 7798OM     OM1 7798   5.451   7.898   9.213  0.0000  0.0000  0.0000
 7799OM     OM1 7799   5.559   8.140   9.187  0.0000  0.0000  0.0000
 7800OM     OM1 7800   8.875   3.177   1.249  0.0000  0.0000  0.0000
 7801OM     OM1 7801   9.497   5.134   0.748  0.0000  0.0000  0.0000
 7802OM     OM1 7802   0.044   4.965   0.640  0.0000  0.0000  0.0000
 7803OM     OM1 7803   7.825   4.415   0.589  0.0000  0.0000  0.0000
 7804OM     OM1 7804   6.621   4.787   0.597  0.0000  0.0000  0.0000
 7805OM     OM1 7805   8.412   9.197   1.450  0.0000  0.0000  0.0000
 7806OM     OM1 7806   8.360   8.981   1.326  0.0000  0.0000  0.0000
 7807OM     OM1 7807   8.308   4.543   8.285  0.0000  0.0000  0.0000
 7808OM     OM1 7808   2.568   0.653   9.333  0.0000  0.0000  0.0000
 7809OM     OM1 7809   2.586   0.439   9.175  0.0000  0.0000  0.0000
 7810OM     OM1 7810   2.489   0.664   9.084  0.0000  0.0000  0.0000
 7811OM     OM1 7811   2.353   0.525   9.258  0.0000  0.0000  0.0000
 7812OM     OM1 7812   1.332   4.354   1.259  0.0000  0.0000  0.0000
 7813OM     OM1 7813   1.409   4.568   1.383  0.0000  0.0000  0.0000
 7814OM     OM1 7814   0.079   1.351   8.913  0.0000  0.0000  0.0000
 7815OM     OM1 7815   0.299   1.469   8.836  0.0000  0.0000  0.0000
 7816OM     OM1 7816   2.343   8.075   8.761  0.0000  0.0000  0.0000
 7817OM     OM1 7817   2.187   8.221   8.902  0.0000  0.0000  0.0000
 7818OM     OM1 7818   4.091   6.370   1.311  0.0000  0.0000  0.0000
 7819OM     OM1 7819   3.929   6.359   1.106  0.0000  0.0000  0.0000
 7820OM     OM1 7820   5.339   3.623   0.204  0.0000  0.0000  0.0000
 7821OM     OM1 7821   2.219   3.872   9.391  0.0000  0.0000  0.0000
 7822OM     OM1 7822   2.175   4.039   9.184  0.0000  0.0000  0.0000
 7823OM     OM1 7823   0.134   7.906   9.578  0.0000  0.0000  0.0000
 7824OM     OM1 7824   0.229   7.685   0.092  0.0000  0.0000  0.0000
 7825OM     OM1 7825   0.309   7.927   0.168  0.0000  0.0000  0.0000
 7826OM     OM1 7826   0.374   2.729   0.371  0.0000  0.0000  0.0000
 7827OM     OM1 7827   0.466   2.491   0.278  0.0000  0.0000  0.0000
 7828OM     OM1 7828   7.893   0.206   0.321  0.0000  0.0000  0.0000
 7829OM     OM1 7829   7.885   0.099   0.086  0.0000  0.0000  0.0000
 7830OM     OM1 7830   2.186   3.129   8.879  0.0000  0.0000  0.0000
 7831OM     OM1 7831   2.214   3.319   9.056  0.0000  0.0000  0.0000
 7832OM     OM1 7832   5.808   2.901   0.823  0.0000  0.0000  0.0000
 7833OM     OM1 7833   5.764   3.069   0.638  0.0000  0.0000  0.0000
 7834OM     OM1 7834   4.368   5.412   1.124  0.0000  0.0000  0.0000
 7835OM     OM1 7835   4.205   5.608   1.194  0.0000  0.0000  0.0000
 7836OM     OM1 7836   4.464   5.649   1.192  0.0000  0.0000  0.0000
 7837OM     OM1 7837   6.225   6.850   9.216  0.0000  0.0000  0.0000
 7838OM     OM1 7838   6.347   6.865   9.445  0.0000  0.0000  0.0000
 7839OM     OM1 7839   4.231   5.636   9.147  0.0000  0.0000  0.0000
 7840OM     OM1 7840   4.041   0.722   0.008  0.0000  0.0000  0.0000
 7841OM     OM1 7841   4.049   0.831   0.245  0.0000  0.0000  0.0000
 7842OM     OM1 7842   6.469   0.120   8.293  0.0000  0.0000  0.0000
 7843OM     OM1 7843   0.947   7.329   8.280  0.0000  0.0000  0.0000
 7844OM     OM1 7844   0.679   7.361   8.346  0.0000  0.0000  0.0000
 7845OM     OM1 7845   0.845   7.207   8.476  0.0000  0.0000  0.0000
 7846OM     OM1 7846   9.568   1.062   1.006  0.0000  0.0000  0.0000
 7847OM     OM1 7847   0.134   1.189   0.853  0.0000  0.0000  0.0000
 7848OM     OM1 7848   9.561   1.378   0.864  0.0000  0.0000  0.0000
 7849OM     OM1 7849   0.186   1.391   1.000  0.0000  0.0000  0.0000
 7850OM     OM1 7850   0.126   4.098   8.706  0.0000  0.0000  0.0000
 7851OM     OM1 7851   0.023   4.148   8.345  0.0000  0.0000  0.0000
 7852OM     OM1 7852   0.117   3.955   8.482  0.0000  0.0000  0.0000
 7853OM     OM1 7853   6.839   7.084   0.214  0.0000  0.0000  0.0000
 7854OM     OM1 7854   3.866   7.681   0.885  0.0000  0.0000  0.0000
 7855OM     OM1 7855   4.033   7.858   0.940  0.0000  0.0000  0.0000
 7856OM     OM1 7856   1.751   6.287   0.591  0.0000  0.0000  0.0000
 7857OM     OM1 7857   1.576   6.481   0.614  0.0000  0.0000  0.0000
 7858OM     OM1 7858   1.724   6.416   0.820  0.0000  0.0000  0.0000
 7859OM     OM1 7859   5.136   3.174   1.326  0.0000  0.0000  0.0000
 7860OM     OM1 7860   4.958   7.692   8.333  0.0000  0.0000  0.0000
 7861OM     OM1 7861   5.203   7.719   8.456  0.0000  0.0000  0.0000
 7862OM     OM1 7862   0.630   9.383   1.139  0.0000  0.0000  0.0000
 7863OM     OM1 7863   0.635   9.152   1.269  0.0000  0.0000  0.0000
 7864OM     OM1 7864   0.431   9.233   1.129  0.0000  0.0000  0.0000
 7865OM     OM1 7865   2.180   0.614   0.802  0.0000  0.0000  0.0000
 7866OM     OM1 7866   2.309   0.739   0.606  0.0000  0.0000  0.0000
 7867OM     OM1 7867   2.065   0.644   0.577  0.0000  0.0000  0.0000
 7868OM     OM1 7868   2.117   0.859   0.728  0.0000  0.0000  0.0000
 7869OM     OM1 7869   3.119   7.761   8.910  0.0000  0.0000  0.0000
 7870OM     OM1 7870   3.138   7.569   9.099  0.0000  0.0000  0.0000
 7871OM     OM1 7871   4.681   4.521   9.233  0.0000  0.0000  0.0000
 7872OM     OM1 7872   4.705   4.779   9.243  0.0000  0.0000  0.0000
 7873OM     OM1 7873   8.439   6.178   8.686  0.0000  0.0000  0.0000
 7874OM     OM1 7874   8.614   6.271   8.523  0.0000  0.0000  0.0000
 7875OM     OM1 7875   9.401   7.778   0.812  0.0000  0.0000  0.0000
 7876OM     OM1 7876   9.399   8.029   0.904  0.0000  0.0000  0.0000
 7877OM     OM1 7877   9.309   7.830   1.053  0.0000  0.0000  0.0000
 7878OM     OM1 7878   3.674   1.729   0.985  0.0000  0.0000  0.0000
 7879OM     OM1 7879   3.556   1.964   0.947  0.0000  0.0000  0.0000
 7880OM     OM1 7880   3.705   1.867   0.760  0.0000  0.0000  0.0000
 7881OM     OM1 7881   3.690   5.800   0.312  0.0000  0.0000  0.0000
 7882OM     OM1 7882   3.688   5.643   0.096  0.0000  0.0000  0.0000
 7883OM     OM1 7883   2.202   2.263   8.991  0.0000  0.0000  0.0000
 7884OM     OM1 7884   2.079   2.086   8.841  0.0000  0.0000  0.0000
 7885OM     OM1 7885   2.240   2.004   9.024  0.0000  0.0000  0.0000
 7886OM     OM1 7886   4.683   3.739   0.357  0.0000  0.0000  0.0000
 7887OM     OM1 7887   4.517   3.669   0.175  0.0000  0.0000  0.0000
 7888OM     OM1 7888   4.440   3.832   0.374  0.0000  0.0000  0.0000
 7889OM     OM1 7889   5.562   1.191   9.125  0.0000  0.0000  0.0000
 7890OM     OM1 7890   5.551   1.058   9.353  0.0000  0.0000  0.0000
 7891OM     OM1 7891   5.390   1.004   9.146  0.0000  0.0000  0.0000
 7892OM     OM1 7892   5.529   6.675   8.733  0.0000  0.0000  0.0000
 7893OM     OM1 7893   5.550   6.931   8.700  0.0000  0.0000  0.0000
 7894OM     OM1 7894   5.698   6.811   8.878  0.0000  0.0000  0.0000
 7895OM     OM1 7895   1.980   6.718   1.121  0.0000  0.0000  0.0000
 7896OM     OM1 7896   1.796   6.539   1.043  0.0000  0.0000  0.0000
 7897OM     OM1 7897   1.767   6.681   1.258  0.0000  0.0000  0.0000
 7898OM     OM1 7898   8.656   8.532   0.598  0.0000  0.0000  0.0000
 7899OM     OM1 7899   8.559   8.312   0.725  0.0000  0.0000  0.0000
 7900OM     OM1 7900   8.710   8.290   0.519  0.0000  0.0000  0.0000
 7901OM     OM1 7901   2.944   0.632   0.592  0.0000  0.0000  0.0000
 7902OM     OM1 7902   8.496   4.099   9.516  0.0000  0.0000  0.0000
 7903OM     OM1 7903   8.581   4.315   9.400  0.0000  0.0000  0.0000
 7904OM     OM1 7904   9.373   0.603   9.262  0.0000  0.0000  0.0000
 7905OM     OM1 7905   9.527   0.628   9.049  0.0000  0.0000  0.0000
 7906OM     OM1 7906   8.004   9.005   0.193  0.0000  0.0000  0.0000
 7907OM     OM1 7907   8.027   9.266   0.142  0.0000  0.0000  0.0000
 7908OM     OM1 7908   3.322   7.167   1.347  0.0000  0.0000  0.0000
 7909OM     OM1 7909   2.014   8.521   8.385  0.0000  0.0000  0.0000
 7910OM     OM1 7910   2.208   8.366   8.450  0.0000  0.0000  0.0000
 7911OM     OM1 7911   7.934   2.698   0.619  0.0000  0.0000  0.0000
 7912OM     OM1 7912   7.810   2.874   0.770  0.0000  0.0000  0.0000
 7913OM     OM1 7913   4.281   7.953   0.969  0.0000  0.0000  0.0000
 7914OM     OM1 7914   4.097   8.070   0.834  0.0000  0.0000  0.0000
 7915OM     OM1 7915   4.201   7.851   0.737  0.0000  0.0000  0.0000
 7916OM     OM1 7916   5.517   4.164   0.573  0.0000  0.0000  0.0000
 7917OM     OM1 7917   5.385   4.015   0.414  0.0000  0.0000  0.0000
 7918OM     OM1 7918   2.924   0.213   0.418  0.0000  0.0000  0.0000
 7919OM     OM1 7919   2.978   0.381   0.602  0.0000  0.0000  0.0000
 7920OM     OM1 7920   3.150   0.331   0.398  0.0000  0.0000  0.0000
 7921OM     OM1 7921   0.007   3.632   8.792  0.0000  0.0000  0.0000
 7922OM     OM1 7922   9.460   3.423   8.815  0.0000  0.0000  0.0000
 7923OM     OM1 7923   6.274   1.506   9.383  0.0000  0.0000  0.0000
 7924OM     OM1 7924   6.143   1.716   9.289  0.0000  0.0000  0.0000
 7925OM     OM1 7925   6.047   1.463   9.261  0.0000  0.0000  0.0000
 7926OM     OM1 7926   1.558   7.544   8.699  0.0000  0.0000  0.0000
 7927OM     OM1 7927   2.815   6.134   0.919  0.0000  0.0000  0.0000
 7928OM     OM1 7928   2.561   6.169   0.836  0.0000  0.0000  0.0000
 7929OM     OM1 7929   0.106   6.796   9.532  0.0000  0.0000  0.0000
 7930OM     OM1 7930   0.297   6.677   0.047  0.0000  0.0000  0.0000
 7931OM     OM1 7931   0.049   6.588   0.081  0.0000  0.0000  0.0000
 7932OM     OM1 7932   6.991   4.717   8.545  0.0000  0.0000  0.0000
 7933OM     OM1 7933   6.847   4.593   8.366  0.0000  0.0000  0.0000
 7934OM     OM1 7934   5.000   2.043   0.560  0.0000  0.0000  0.0000
 7935OM     OM1 7935   4.753   2.117   0.635  0.0000  0.0000  0.0000
 7936OM     OM1 7936   4.862   1.907   0.736  0.0000  0.0000  0.0000
 7937OM     OM1 7937   5.900   6.937   8.974  0.0000  0.0000  0.0000
 7938OM     OM1 7938   5.879   6.918   8.722  0.0000  0.0000  0.0000
 7939OM     OM1 7939   5.941   6.705   8.863  0.0000  0.0000  0.0000
 7940OM     OM1 7940   2.221   0.288   8.731  0.0000  0.0000  0.0000
 7941OM     OM1 7941   2.367   0.470   8.627  0.0000  0.0000  0.0000
 7942OM     OM1 7942   8.369   5.891   0.786  0.0000  0.0000  0.0000
 7943OM     OM1 7943   7.321   2.808   0.503  0.0000  0.0000  0.0000
 7944OM     OM1 7944   7.432   2.896   0.731  0.0000  0.0000  0.0000
 7945OM     OM1 7945   2.918   6.434   8.413  0.0000  0.0000  0.0000
 7946OM     OM1 7946   6.714   2.727   8.887  0.0000  0.0000  0.0000
 7947OM     OM1 7947   6.924   2.807   8.746  0.0000  0.0000  0.0000
 7948OM     OM1 7948   6.782   2.599   8.676  0.0000  0.0000  0.0000
 7949OM     OM1 7949   8.488   7.903   9.050  0.0000  0.0000  0.0000
 7950OM     OM1 7950   3.672   0.667   8.764  0.0000  0.0000  0.0000
 7951OM     OM1 7951   8.321   8.436   9.148  0.0000  0.0000  0.0000
 7952OM     OM1 7952   8.109   8.322   9.021  0.0000  0.0000  0.0000
 7953OM     OM1 7953   8.347   8.342   8.908  0.0000  0.0000  0.0000
 7954OM     OM1 7954   4.666   1.295   8.570  0.0000  0.0000  0.0000
 7955OM     OM1 7955   6.307   7.732   9.551  0.0000  0.0000  0.0000
 7956OM     OM1 7956   5.048   6.314   1.102  0.0000  0.0000  0.0000
 7957OM     OM1 7957   5.624   4.838   0.604  0.0000  0.0000  0.0000
 7958OM     OM1 7958   5.697   4.594   0.526  0.0000  0.0000  0.0000
 7959OM     OM1 7959   5.858   4.802   0.498  0.0000  0.0000  0.0000
 7960OM     OM1 7960   8.334   6.073   9.414  0.0000  0.0000  0.0000
 7961OM     OM1 7961   8.312   6.125   9.164  0.0000  0.0000  0.0000
 7962OM     OM1 7962   4.225   4.570   9.429  0.0000  0.0000  0.0000
 7963OM     OM1 7963   4.791   6.095   0.532  0.0000  0.0000  0.0000
 7964OM     OM1 7964   4.862   6.025   0.767  0.0000  0.0000  0.0000
 7965OM     OM1 7965   4.602   5.996   0.669  0.0000  0.0000  0.0000
 7966OM     OM1 7966   4.795   5.842   0.589  0.0000  0.0000  0.0000
 7967OM     OM1 7967   1.611   7.278   0.325  0.0000  0.0000  0.0000
 7968OM     OM1 7968   1.782   7.234   0.531  0.0000  0.0000  0.0000
 7969OM     OM1 7969   8.252   4.468   9.015  0.0000  0.0000  0.0000
 7970OM     OM1 7970   8.205   4.370   9.253  0.0000  0.0000  0.0000
 7971OM     OM1 7971   8.104   4.264   9.028  0.0000  0.0000  0.0000
 7972OM     OM1 7972   8.227   1.541   9.077  0.0000  0.0000  0.0000
 7973OM     OM1 7973   8.092   1.746   9.153  0.0000  0.0000  0.0000
 7974OM     OM1 7974   8.290   1.665   9.298  0.0000  0.0000  0.0000
 7975OM     OM1 7975   6.211   4.735   9.078  0.0000  0.0000  0.0000
 7976OM     OM1 7976   6.165   4.817   8.831  0.0000  0.0000  0.0000
 7977OM     OM1 7977   3.019   7.333   9.115  0.0000  0.0000  0.0000
 7978OM     OM1 7978   2.327   5.612   1.270  0.0000  0.0000  0.0000
 7979OM     OM1 7979   2.590   5.610   1.293  0.0000  0.0000  0.0000
 7980OM     OM1 7980   2.450   5.402   1.373  0.0000  0.0000  0.0000
 7981OM     OM1 7981   1.500   1.115   1.197  0.0000  0.0000  0.0000
 7982OM     OM1 7982   3.325   1.094   9.318  0.0000  0.0000  0.0000
 7983OM     OM1 7983   3.395   1.315   9.445  0.0000  0.0000  0.0000
 7984OM     OM1 7984   6.324   2.987   9.553  0.0000  0.0000  0.0000
 7985OM     OM1 7985   6.356   3.114   9.326  0.0000  0.0000  0.0000
 7986OM     OM1 7986   1.691   8.610   9.567  0.0000  0.0000  0.0000
 7987OM     OM1 7987   1.919   8.478   0.001  0.0000  0.0000  0.0000
 7988OM     OM1 7988   1.907   8.690   9.461  0.0000  0.0000  0.0000
 7989OM     OM1 7989   9.261   6.256   0.907  0.0000  0.0000  0.0000
 7990OM     OM1 7990   9.261   6.139   1.130  0.0000  0.0000  0.0000
 7991OM     OM1 7991   9.289   6.402   1.125  0.0000  0.0000  0.0000
 7992OM     OM1 7992   1.934   0.862   0.414  0.0000  0.0000  0.0000
 7993OM     OM1 7993   1.846   0.628   0.442  0.0000  0.0000  0.0000
 7994OM     OM1 7994   5.643   7.555   9.361  0.0000  0.0000  0.0000
 7995OM     OM1 7995   4.823   8.134   0.305  0.0000  0.0000  0.0000
 7996OM     OM1 7996   4.690   8.079   0.524  0.0000  0.0000  0.0000
 7997OM     OM1 7997   4.807   7.884   0.410  0.0000  0.0000  0.0000
 7998OM     OM1 7998   2.445   3.183   0.776  0.0000  0.0000  0.0000
 7999OM     OM1 7999   2.443   3.424   0.883  0.0000  0.0000  0.0000
 8000OM     OM1 8000   2.668   3.314   0.782  0.0000  0.0000  0.0000
 8001OM     OM1 8001   5.340   9.319   9.154  0.0000  0.0000  0.0000
 8002OM     OM1 8002   5.178   9.311   9.353  0.0000  0.0000  0.0000
 8003OM     OM1 8003   5.432   9.244   9.398  0.0000  0.0000  0.0000
 8004OM     OM1 8004   4.195   8.024   9.075  0.0000  0.0000  0.0000
 8005OM     OM1 8005   4.200   7.836   8.897  0.0000  0.0000  0.0000
 8006OM     OM1 8006   4.066   7.798   9.117  0.0000  0.0000  0.0000
 8007OM     OM1 8007   3.975   7.973   8.946  0.0000  0.0000  0.0000
 8008OM     OM1 8008   0.432   1.324   8.656  0.0000  0.0000  0.0000
 8009OM     OM1 8009   0.564   1.457   8.839  0.0000  0.0000  0.0000
 8010OM     OM1 8010   7.320   1.490   0.891  0.0000  0.0000  0.0000
 8011OM     OM1 8011   7.263   1.717   1.010  0.0000  0.0000  0.0000
 8012OM     OM1 8012   9.212   0.226   8.294  0.0000  0.0000  0.0000
 8013OM     OM1 8013   9.112   9.600   8.300  0.0000  0.0000  0.0000
 8014OM     OM1 8014   8.289   4.790   0.818  0.0000  0.0000  0.0000
 8015OM     OM1 8015   6.658   2.027   8.962  0.0000  0.0000  0.0000
 8016OM     OM1 8016   6.398   2.038   8.988  0.0000  0.0000  0.0000
 8017OM     OM1 8017   6.532   2.005   9.206  0.0000  0.0000  0.0000
 8018OM     OM1 8018   6.530   1.819   9.017  0.0000  0.0000  0.0000
 8019OM     OM1 8019   0.114   3.092   0.775  0.0000  0.0000  0.0000
 8020OM     OM1 8020   0.018   2.871   0.693  0.0000  0.0000  0.0000
 8021OM     OM1 8021   9.467   3.036   0.838  0.0000  0.0000  0.0000
 8022OM     OM1 8022   9.524   3.101   0.599  0.0000  0.0000  0.0000
 8023OM     OM1 8023   3.389   8.472   0.926  0.0000  0.0000  0.0000
 8024OM     OM1 8024   3.643   8.469   0.976  0.0000  0.0000  0.0000
 8025OM     OM1 8025   6.669   5.089   0.211  0.0000  0.0000  0.0000
 8026OM     OM1 8026   6.912   5.016   0.224  0.0000  0.0000  0.0000
 8027OM     OM1 8027   6.715   4.892   0.374  0.0000  0.0000  0.0000
 8028OM     OM1 8028   3.946   3.548   1.084  0.0000  0.0000  0.0000
 8029OM     OM1 8029   2.692   4.180   0.895  0.0000  0.0000  0.0000
 8030OM     OM1 8030   2.493   4.070   1.041  0.0000  0.0000  0.0000
 8031OM     OM1 8031   2.570   3.983   0.800  0.0000  0.0000  0.0000
 8032OM     OM1 8032   2.715   3.944   1.012  0.0000  0.0000  0.0000
 8033OM     OM1 8033   6.957   2.725   9.289  0.0000  0.0000  0.0000
 8034OM     OM1 8034   6.734   2.747   9.146  0.0000  0.0000  0.0000
 8035OM     OM1 8035   6.822   2.943   9.294  0.0000  0.0000  0.0000
 8036OM     OM1 8036   8.501   4.665   9.057  0.0000  0.0000  0.0000
 8037OM     OM1 8037   8.747   4.609   9.117  0.0000  0.0000  0.0000
 8038OM     OM1 8038   4.296   2.527   0.498  0.0000  0.0000  0.0000
 8039OM     OM1 8039   4.070   2.606   0.396  0.0000  0.0000  0.0000
 8040OM     OM1 8040   1.360   4.849   0.407  0.0000  0.0000  0.0000
 8041OM     OM1 8041   1.329   4.946   0.168  0.0000  0.0000  0.0000
 8042OM     OM1 8042   7.634   5.590   0.132  0.0000  0.0000  0.0000
 8043OM     OM1 8043   4.859   0.402   8.163  0.0000  0.0000  0.0000
 8044OM     OM1 8044   4.728   0.596   8.235  0.0000  0.0000  0.0000
 8045OM     OM1 8045   0.948   4.377   8.230  0.0000  0.0000  0.0000
 8046OM     OM1 8046   9.570   1.961   0.614  0.0000  0.0000  0.0000
 8047OM     OM1 8047   3.625   5.702   8.928  0.0000  0.0000  0.0000
 8048OM     OM1 8048   3.754   5.517   9.054  0.0000  0.0000  0.0000
 8049OM     OM1 8049   2.191   5.770   0.857  0.0000  0.0000  0.0000
 8050OM     OM1 8050   2.371   5.902   1.009  0.0000  0.0000  0.0000
 8051OM     OM1 8051   6.032   1.195   9.278  0.0000  0.0000  0.0000
 8052OM     OM1 8052   5.948   1.339   9.060  0.0000  0.0000  0.0000
 8053OM     OM1 8053   5.445   4.882   8.642  0.0000  0.0000  0.0000
 8054OM     OM1 8054   5.691   4.809   8.573  0.0000  0.0000  0.0000
 8055OM     OM1 8055   1.866   2.099   0.381  0.0000  0.0000  0.0000
 8056OM     OM1 8056   1.765   2.250   0.199  0.0000  0.0000  0.0000
 8057OM     OM1 8057   1.603   2.118   0.374  0.0000  0.0000  0.0000
 8058OM     OM1 8058   0.281   7.567   1.171  0.0000  0.0000  0.0000
 8059OM     OM1 8059   0.469   7.733   1.111  0.0000  0.0000  0.0000
 8060OM     OM1 8060   9.200   2.385   8.703  0.0000  0.0000  0.0000
 8061OM     OM1 8061   9.031   2.301   8.525  0.0000  0.0000  0.0000
 8062OM     OM1 8062   5.461   7.577   8.818  0.0000  0.0000  0.0000
 8063OM     OM1 8063   5.484   9.018   0.504  0.0000  0.0000  0.0000
 8064OM     OM1 8064   0.975   2.142   0.224  0.0000  0.0000  0.0000
 8065OM     OM1 8065   0.833   1.934   0.298  0.0000  0.0000  0.0000
 8066OM     OM1 8066   1.081   1.909   0.218  0.0000  0.0000  0.0000
 8067OM     OM1 8067   5.597   6.750   1.418  0.0000  0.0000  0.0000
 8068OM     OM1 8068   0.391   6.596   0.977  0.0000  0.0000  0.0000
 8069OM     OM1 8069   0.236   6.432   0.868  0.0000  0.0000  0.0000
 8070OM     OM1 8070   3.881   0.814   0.450  0.0000  0.0000  0.0000
 8071OM     OM1 8071   3.803   0.769   0.210  0.0000  0.0000  0.0000
 8072OM     OM1 8072   4.714   6.710   9.337  0.0000  0.0000  0.0000
 8073OM     OM1 8073   3.155   3.535   9.228  0.0000  0.0000  0.0000
 8074OM     OM1 8074   9.600   6.396   9.525  0.0000  0.0000  0.0000
 8075OM     OM1 8075   8.174   7.521   8.921  0.0000  0.0000  0.0000
 8076OM     OM1 8076   8.427   7.442   8.921  0.0000  0.0000  0.0000
 8077OM     OM1 8077   8.281   7.456   9.146  0.0000  0.0000  0.0000
 8078OM     OM1 8078   5.649   7.548   0.547  0.0000  0.0000  0.0000
 8079OM     OM1 8079   5.711   7.736   0.726  0.0000  0.0000  0.0000
 8080OM     OM1 8080   5.863   7.526   0.700  0.0000  0.0000  0.0000
 8081OM     OM1 8081   7.533   6.519   1.340  0.0000  0.0000  0.0000
 8082OM     OM1 8082   0.809   0.928   0.857  0.0000  0.0000  0.0000
 8083OM     OM1 8083   0.859   0.673   0.878  0.0000  0.0000  0.0000
 8084OM     OM1 8084   1.116   0.836   1.188  0.0000  0.0000  0.0000
 8085OM     OM1 8085   2.270   1.785   9.162  0.0000  0.0000  0.0000
 8086OM     OM1 8086   2.478   1.931   9.068  0.0000  0.0000  0.0000
 8087OM     OM1 8087   8.730   0.000   8.719  0.0000  0.0000  0.0000
 8088OM     OM1 8088   8.715   9.345   8.755  0.0000  0.0000  0.0000
 8089OM     OM1 8089   3.064   2.777   0.836  0.0000  0.0000  0.0000
 8090OM     OM1 8090   3.278   2.682   0.941  0.0000  0.0000  0.0000
 8091OM     OM1 8091   8.653   0.240   1.271  0.0000  0.0000  0.0000
 8092OM     OM1 8092   8.618   0.008   1.176  0.0000  0.0000  0.0000
 8093OM     OM1 8093   8.868   0.103   1.245  0.0000  0.0000  0.0000
 8094OM     OM1 8094   5.470   6.693   8.488  0.0000  0.0000  0.0000
 8095OM     OM1 8095   5.368   6.850   8.302  0.0000  0.0000  0.0000
 8096OM     OM1 8096   7.219   6.522   8.449  0.0000  0.0000  0.0000
 8097OM     OM1 8097   7.367   6.323   8.359  0.0000  0.0000  0.0000
 8098OM     OM1 8098   0.014   0.100   0.024  0.0000  0.0000  0.0000
 8099OM     OM1 8099   0.080   0.406   0.401  0.0000  0.0000  0.0000
 8100OM     OM1 8100   0.192   0.287   9.544  0.0000  0.0000  0.0000
 8101OM     OM1 8101   0.095   0.290   0.173  0.0000  0.0000  0.0000
 8102OM     OM1 8102   7.440   8.472   9.456  0.0000  0.0000  0.0000
 8103OM     OM1 8103   7.268   8.463   0.041  0.0000  0.0000  0.0000
 8104OM     OM1 8104   7.306   8.686   9.527  0.0000  0.0000  0.0000
 8105OM     OM1 8105   0.894   9.123   8.444  0.0000  0.0000  0.0000
 8106OM     OM1 8106   1.123   9.020   8.495  0.0000  0.0000  0.0000
 8107OM     OM1 8107   7.657   0.474   8.793  0.0000  0.0000  0.0000
 8108OM     OM1 8108   0.842   3.651   0.206  0.0000  0.0000  0.0000
 8109OM     OM1 8109   0.897   3.540   0.436  0.0000  0.0000  0.0000
 8110OM     OM1 8110   0.838   3.799   0.421  0.0000  0.0000  0.0000
 8111OM     OM1 8111   6.118   5.933   1.145  0.0000  0.0000  0.0000
 8112OM     OM1 8112   5.912   5.914   1.011  0.0000  0.0000  0.0000
 8113OM     OM1 8113   9.247   5.027   0.773  0.0000  0.0000  0.0000
 8114OM     OM1 8114   9.229   4.935   0.541  0.0000  0.0000  0.0000
 8115OM     OM1 8115   8.868   5.203   0.483  0.0000  0.0000  0.0000
 8116OM     OM1 8116   0.409   6.914   8.581  0.0000  0.0000  0.0000
 8117OM     OM1 8117   0.662   0.707   9.356  0.0000  0.0000  0.0000
 8118OM     OM1 8118   0.512   0.791   9.174  0.0000  0.0000  0.0000
 8119OM     OM1 8119   8.520   4.301   0.794  0.0000  0.0000  0.0000
 8120OM     OM1 8120   8.628   4.059   0.802  0.0000  0.0000  0.0000
 8121OM     OM1 8121   8.394   4.099   0.685  0.0000  0.0000  0.0000
 8122OM     OM1 8122   6.033   3.909   0.279  0.0000  0.0000  0.0000
 8123OM     OM1 8123   1.838   1.354   9.042  0.0000  0.0000  0.0000
 8124OM     OM1 8124   1.787   1.153   9.205  0.0000  0.0000  0.0000
 8125OM     OM1 8125   0.332   3.465   9.344  0.0000  0.0000  0.0000
 8126OM     OM1 8126   0.285   3.505   9.596  0.0000  0.0000  0.0000
 8127OM     OM1 8127   1.795   8.905   9.380  0.0000  0.0000  0.0000
 8128OM     OM1 8128   1.848   8.914   9.123  0.0000  0.0000  0.0000
 8129OM     OM1 8129   1.613   8.986   9.209  0.0000  0.0000  0.0000
 8130OM     OM1 8130   9.474   4.842   0.493  0.0000  0.0000  0.0000
 8131OM     OM1 8131   9.316   4.926   0.295  0.0000  0.0000  0.0000
 8132OM     OM1 8132   1.837   4.501   9.066  0.0000  0.0000  0.0000
 8133OM     OM1 8133   1.943   4.473   8.823  0.0000  0.0000  0.0000
 8134OM     OM1 8134   4.948   3.234   1.150  0.0000  0.0000  0.0000
 8135OM     OM1 8135   5.186   3.227   1.072  0.0000  0.0000  0.0000
 8136OM     OM1 8136   1.165   7.907   0.313  0.0000  0.0000  0.0000
 8137OM     OM1 8137   1.335   8.028   0.163  0.0000  0.0000  0.0000
 8138OM     OM1 8138   1.278   8.122   0.403  0.0000  0.0000  0.0000
 8139OM     OM1 8139   1.158   4.426   0.435  0.0000  0.0000  0.0000
 8140OM     OM1 8140   1.078   4.671   0.420  0.0000  0.0000  0.0000
 8141OM     OM1 8141   1.266   4.587   0.249  0.0000  0.0000  0.0000
 8142OM     OM1 8142   6.925   8.434   8.522  0.0000  0.0000  0.0000
 8143OM     OM1 8143   9.439   8.022   8.556  0.0000  0.0000  0.0000
 8144OM     OM1 8144   9.559   8.228   8.653  0.0000  0.0000  0.0000
 8145OM     OM1 8145   1.707   7.499   0.000  0.0000  0.0000  0.0000
 8146OM     OM1 8146   2.089   1.708   0.170  0.0000  0.0000  0.0000
 8147OM     OM1 8147   2.060   1.450   0.181  0.0000  0.0000  0.0000
 8148OM     OM1 8148   5.799   6.230   0.912  0.0000  0.0000  0.0000
 8149OM     OM1 8149   5.697   6.111   0.718  0.0000  0.0000  0.0000
 8150OM     OM1 8150   1.051   8.881   0.861  0.0000  0.0000  0.0000
 8151OM     OM1 8151   1.364   3.874   0.017  0.0000  0.0000  0.0000
 8152OM     OM1 8152   1.391   3.959   9.373  0.0000  0.0000  0.0000
 8153OM     OM1 8153   6.081   4.682   1.230  0.0000  0.0000  0.0000
 8154OM     OM1 8154   4.236   2.633   9.555  0.0000  0.0000  0.0000
 8155OM     OM1 8155   4.278   2.827   0.139  0.0000  0.0000  0.0000
 8156OM     OM1 8156   4.356   2.536   9.350  0.0000  0.0000  0.0000
 8157OM     OM1 8157   4.367   2.843   9.493  0.0000  0.0000  0.0000
 8158OM     OM1 8158   5.851   3.836   8.599  0.0000  0.0000  0.0000
 8159OM     OM1 8159   6.022   3.677   8.491  0.0000  0.0000  0.0000
 8160OM     OM1 8160   8.440   2.773   0.442  0.0000  0.0000  0.0000
 8161OM     OM1 8161   8.413   2.854   0.765  0.0000  0.0000  0.0000
 8162OM     OM1 8162   8.290   2.673   0.626  0.0000  0.0000  0.0000
 8163OM     OM1 8163   6.042   1.509   8.872  0.0000  0.0000  0.0000
 8164OM     OM1 8164   5.876   1.323   8.804  0.0000  0.0000  0.0000
 8165OM     OM1 8165   3.219   3.223   0.065  0.0000  0.0000  0.0000
 8166OM     OM1 8166   3.036   3.368   0.413  0.0000  0.0000  0.0000
 8167OM     OM1 8167   5.616   6.297   0.091  0.0000  0.0000  0.0000
 8168OM     OM1 8168   0.750   4.825   8.808  0.0000  0.0000  0.0000
 8169OM     OM1 8169   5.606   5.617   0.134  0.0000  0.0000  0.0000
 8170OM     OM1 8170   5.675   5.390   0.254  0.0000  0.0000  0.0000
 8171OM     OM1 8171   5.601   5.392   0.005  0.0000  0.0000  0.0000
 8172OM     OM1 8172   4.537   5.937   8.307  0.0000  0.0000  0.0000
 8173OM     OM1 8173   4.709   6.096   8.195  0.0000  0.0000  0.0000
 8174OM     OM1 8174   4.588   6.188   8.391  0.0000  0.0000  0.0000
 8175OM     OM1 8175   1.011   6.207   0.901  0.0000  0.0000  0.0000
 8176OM     OM1 8176   0.781   6.314   0.908  0.0000  0.0000  0.0000
 8177OM     OM1 8177   0.808   6.049   0.864  0.0000  0.0000  0.0000
 8178OM     OM1 8178   0.845   6.151   1.098  0.0000  0.0000  0.0000
 8179OM     OM1 8179   3.847   1.532   9.087  0.0000  0.0000  0.0000
 8180OM     OM1 8180   3.800   1.675   9.291  0.0000  0.0000  0.0000
 8181OM     OM1 8181   3.883   1.438   9.331  0.0000  0.0000  0.0000
 8182OM     OM1 8182   4.050   1.617   9.232  0.0000  0.0000  0.0000
 8183OM     OM1 8183   6.427   4.379   9.513  0.0000  0.0000  0.0000
 8184OM     OM1 8184   6.610   4.362   9.326  0.0000  0.0000  0.0000
 8185OM     OM1 8185   8.927   3.162   9.345  0.0000  0.0000  0.0000
 8186OM     OM1 8186   8.225   3.875   9.409  0.0000  0.0000  0.0000
 8187OM     OM1 8187   8.382   3.893   0.014  0.0000  0.0000  0.0000
 8188OM     OM1 8188   8.450   3.740   9.419  0.0000  0.0000  0.0000
 8189OM     OM1 8189   1.571   4.293   8.924  0.0000  0.0000  0.0000
 8190OM     OM1 8190   1.388   4.416   8.791  0.0000  0.0000  0.0000
 8191OM     OM1 8191   1.512   4.550   8.984  0.0000  0.0000  0.0000
 8192OM     OM1 8192   5.439   7.233   9.232  0.0000  0.0000  0.0000
 8193OM     OM1 8193   5.333   7.011   9.208  0.0000  0.0000  0.0000
 8194OM     OM1 8194   5.317   7.164   9.000  0.0000  0.0000  0.0000
 8195OM     OM1 8195   0.990   7.883   0.115  0.0000  0.0000  0.0000
 8196OM     OM1 8196   0.918   7.836   0.362  0.0000  0.0000  0.0000
 8197OM     OM1 8197   2.182   6.735   0.383  0.0000  0.0000  0.0000
 8198OM     OM1 8198   4.857   2.425   8.229  0.0000  0.0000  0.0000
 8199OM     OM1 8199   6.896   0.160   0.186  0.0000  0.0000  0.0000
 8200OM     OM1 8200   6.667   0.218   0.106  0.0000  0.0000  0.0000
 8201OM     OM1 8201   6.832   0.412   0.158  0.0000  0.0000  0.0000
 8202OM     OM1 8202   3.657   0.167   0.018  0.0000  0.0000  0.0000
 8203OM     OM1 8203   8.168   3.111   8.822  0.0000  0.0000  0.0000
 8204OM     OM1 8204   8.059   3.089   9.063  0.0000  0.0000  0.0000
 8205OM     OM1 8205   4.278   4.228   9.032  0.0000  0.0000  0.0000
 8206OM     OM1 8206   4.043   4.111   9.057  0.0000  0.0000  0.0000
 8207OM     OM1 8207   4.261   3.986   9.121  0.0000  0.0000  0.0000
 8208OM     OM1 8208   2.894   4.926   9.205  0.0000  0.0000  0.0000
 8209OM     OM1 8209   2.996   5.073   9.389  0.0000  0.0000  0.0000
 8210OM     OM1 8210   3.208   8.707   8.450  0.0000  0.0000  0.0000
 8211OM     OM1 8211   5.111   0.565   0.621  0.0000  0.0000  0.0000
 8212OM     OM1 8212   5.715   4.221   8.369  0.0000  0.0000  0.0000
 8213OM     OM1 8213   5.826   4.675   8.395  0.0000  0.0000  0.0000
 8214OM     OM1 8214   3.250   3.007   9.055  0.0000  0.0000  0.0000
 8215OM     OM1 8215   3.509   2.969   8.992  0.0000  0.0000  0.0000
 8216OM     OM1 8216   7.346   8.145   9.105  0.0000  0.0000  0.0000
 8217OM     OM1 8217   7.229   8.304   8.944  0.0000  0.0000  0.0000
 8218OM     OM1 8218   8.659   3.088   8.688  0.0000  0.0000  0.0000
 8219OM     OM1 8219   8.909   3.088   8.596  0.0000  0.0000  0.0000
 8220OM     OM1 8220   7.821   1.573   9.012  0.0000  0.0000  0.0000
 8221OM     OM1 8221   2.231   8.118   8.520  0.0000  0.0000  0.0000
 8222OM     OM1 8222   4.722   7.701   8.439  0.0000  0.0000  0.0000
 8223OM     OM1 8223   0.242   2.652   8.717  0.0000  0.0000  0.0000
 8224OM     OM1 8224   0.001   2.745   8.720  0.0000  0.0000  0.0000
 8225OM     OM1 8225   0.046   2.530   8.855  0.0000  0.0000  0.0000
 8226OM     OM1 8226   4.345   9.226   0.141  0.0000  0.0000  0.0000
 8227OM     OM1 8227   4.424   9.025   9.596  0.0000  0.0000  0.0000
 8228OM     OM1 8228   4.528   9.051   0.230  0.0000  0.0000  0.0000
 8229OM     OM1 8229   4.531   1.760   8.713  0.0000  0.0000  0.0000
 8230OM     OM1 8230   4.377   1.635   8.879  0.0000  0.0000  0.0000
 8231OM     OM1 8231   4.296   1.861   8.761  0.0000  0.0000  0.0000
 8232OM     OM1 8232   4.320   1.639   8.625  0.0000  0.0000  0.0000
 8233OM     OM1 8233   8.820   8.224   1.005  0.0000  0.0000  0.0000
 8234OM     OM1 8234   8.936   8.263   1.236  0.0000  0.0000  0.0000
 8235OM     OM1 8235   1.377   7.991   8.748  0.0000  0.0000  0.0000
 8236OM     OM1 8236   1.157   7.939   8.889  0.0000  0.0000  0.0000
 8237OM     OM1 8237   3.881   1.329   1.436  0.0000  0.0000  0.0000
 8238OM     OM1 8238   8.169   9.002   9.089  0.0000  0.0000  0.0000
 8239OM     OM1 8239   8.343   9.180   9.190  0.0000  0.0000  0.0000
 8240OM     OM1 8240   2.075   0.554   8.945  0.0000  0.0000  0.0000
 8241OM     OM1 8241   1.821   0.759   8.985  0.0000  0.0000  0.0000
 8242OM     OM1 8242   2.047   0.792   8.858  0.0000  0.0000  0.0000
 8243OM     OM1 8243   0.123   7.971   9.158  0.0000  0.0000  0.0000
 8244OM     OM1 8244   9.600   7.994   9.380  0.0000  0.0000  0.0000
 8245OM     OM1 8245   9.469   7.963   9.157  0.0000  0.0000  0.0000
 8246OM     OM1 8246   0.894   6.329   1.281  0.0000  0.0000  0.0000
 8247OM     OM1 8247   8.639   3.255   1.164  0.0000  0.0000  0.0000
 8248OM     OM1 8248   6.778   9.538   0.133  0.0000  0.0000  0.0000
 8249OM     OM1 8249   6.094   6.537   0.774  0.0000  0.0000  0.0000
 8250OM     OM1 8250   6.257   6.732   0.699  0.0000  0.0000  0.0000
 8251OM     OM1 8251   6.101   6.634   0.522  0.0000  0.0000  0.0000
 8252OM     OM1 8252   5.999   6.764   0.734  0.0000  0.0000  0.0000
 8253OM     OM1 8253   9.041   3.270   0.812  0.0000  0.0000  0.0000
 8254OM     OM1 8254   9.210   3.458   0.801  0.0000  0.0000  0.0000
 8255OM     OM1 8255   8.959   3.494   0.719  0.0000  0.0000  0.0000
 8256OM     OM1 8256   0.401   7.093   0.337  0.0000  0.0000  0.0000
 8257OM     OM1 8257   0.624   7.194   0.430  0.0000  0.0000  0.0000
 8258OM     OM1 8258   0.632   7.010   0.242  0.0000  0.0000  0.0000
 8259OM     OM1 8259   4.694   7.732   1.214  0.0000  0.0000  0.0000
 8260OM     OM1 8260   6.006   5.185   0.006  0.0000  0.0000  0.0000
 8261OM     OM1 8261   5.827   5.051   9.480  0.0000  0.0000  0.0000
 8262OM     OM1 8262   1.652   2.940   8.214  0.0000  0.0000  0.0000
 8263OM     OM1 8263   5.541   4.338   0.115  0.0000  0.0000  0.0000
 8264OM     OM1 8264   5.542   4.453   9.483  0.0000  0.0000  0.0000
 8265OM     OM1 8265   0.711   3.120   8.251  0.0000  0.0000  0.0000
 8266OM     OM1 8266   2.541   1.897   0.724  0.0000  0.0000  0.0000
 8267OM     OM1 8267   2.723   1.788   0.882  0.0000  0.0000  0.0000
 8268OM     OM1 8268   2.728   2.047   0.831  0.0000  0.0000  0.0000
 8269OM     OM1 8269   0.432   3.433   0.479  0.0000  0.0000  0.0000
 8270OM     OM1 8270   0.346   3.515   0.240  0.0000  0.0000  0.0000
 8271OM     OM1 8271   0.187   3.443   0.429  0.0000  0.0000  0.0000
 8272OM     OM1 8272   7.902   5.588   0.142  0.0000  0.0000  0.0000
 8273OM     OM1 8273   8.937   7.989   8.836  0.0000  0.0000  0.0000
 8274OM     OM1 8274   2.800   3.071   9.313  0.0000  0.0000  0.0000
 8275OM     OM1 8275   8.177   6.259   1.169  0.0000  0.0000  0.0000
 8276OM     OM1 8276   4.776   9.427   8.344  0.0000  0.0000  0.0000
 8277OM     OM1 8277   9.489   3.925   0.730  0.0000  0.0000  0.0000
 8278OM     OM1 8278   0.270   4.127   0.428  0.0000  0.0000  0.0000
 8279OM     OM1 8279   9.500   3.798   0.502  0.0000  0.0000  0.0000
 8280OM     OM1 8280   0.782   4.485   8.529  0.0000  0.0000  0.0000
 8281OM     OM1 8281   6.398   2.636   9.532  0.0000  0.0000  0.0000
 8282OM     OM1 8282   6.447   2.644   9.280  0.0000  0.0000  0.0000
 8283OM     OM1 8283   6.344   2.878   9.232  0.0000  0.0000  0.0000
 8284OM     OM1 8284   5.004   1.681   9.550  0.0000  0.0000  0.0000
 8285OM     OM1 8285   5.178   1.665   9.356  0.0000  0.0000  0.0000
 8286OM     OM1 8286   5.234   1.813   9.560  0.0000  0.0000  0.0000
 8287OM     OM1 8287   5.047   1.890   9.392  0.0000  0.0000  0.0000
 8288OM     OM1 8288   1.425   8.423   8.415  0.0000  0.0000  0.0000
 8289OM     OM1 8289   1.547   8.616   8.288  0.0000  0.0000  0.0000
 8290OM     OM1 8290   5.753   2.762   8.244  0.0000  0.0000  0.0000
 8291OM     OM1 8291   5.776   2.948   8.420  0.0000  0.0000  0.0000
 8292OM     OM1 8292   6.891   3.354   9.296  0.0000  0.0000  0.0000
 8293OM     OM1 8293   7.039   3.304   9.501  0.0000  0.0000  0.0000
 8294OM     OM1 8294   5.018   9.244   1.343  0.0000  0.0000  0.0000
 8295OM     OM1 8295   1.597   6.365   1.044  0.0000  0.0000  0.0000
 8296OM     OM1 8296   1.638   6.276   1.280  0.0000  0.0000  0.0000
 8297OM     OM1 8297   7.920   1.337   0.044  0.0000  0.0000  0.0000
 8298OM     OM1 8298   3.590   6.507   8.293  0.0000  0.0000  0.0000
 8299OM     OM1 8299   8.393   2.810   1.091  0.0000  0.0000  0.0000
 8300OM     OM1 8300   8.589   2.889   0.948  0.0000  0.0000  0.0000
 8301OM     OM1 8301   8.480   3.060   1.106  0.0000  0.0000  0.0000
 8302OM     OM1 8302   7.174   5.041   8.672  0.0000  0.0000  0.0000
 8303OM     OM1 8303   7.064   5.260   8.729  0.0000  0.0000  0.0000
 8304OM     OM1 8304   7.000   5.150   8.501  0.0000  0.0000  0.0000
 8305OM     OM1 8305   1.781   9.368   0.626  0.0000  0.0000  0.0000
 8306OM     OM1 8306   1.764   9.174   0.453  0.0000  0.0000  0.0000
 8307OM     OM1 8307   3.862   3.975   0.961  0.0000  0.0000  0.0000
 8308OM     OM1 8308   3.970   3.808   1.126  0.0000  0.0000  0.0000
 8309OM     OM1 8309   4.843   5.622   9.471  0.0000  0.0000  0.0000
 8310OM     OM1 8310   4.683   5.460   0.012  0.0000  0.0000  0.0000
 8311OM     OM1 8311   4.875   5.362   9.467  0.0000  0.0000  0.0000
 8312OM     OM1 8312   7.040   2.911   0.968  0.0000  0.0000  0.0000
 8313OM     OM1 8313   6.805   2.800   0.963  0.0000  0.0000  0.0000
 8314OM     OM1 8314   6.846   2.816   0.558  0.0000  0.0000  0.0000
 8315OM     OM1 8315   6.750   2.997   1.120  0.0000  0.0000  0.0000
 8316OM     OM1 8316   0.765   8.749   9.558  0.0000  0.0000  0.0000
 8317OM     OM1 8317   0.819   8.767   0.203  0.0000  0.0000  0.0000
 8318OM     OM1 8318   0.628   8.593   0.119  0.0000  0.0000  0.0000
 8319OM     OM1 8319   0.870   8.544   0.074  0.0000  0.0000  0.0000
 8320OM     OM1 8320   2.813   0.485   9.058  0.0000  0.0000  0.0000
 8321OM     OM1 8321   2.863   4.348   0.968  0.0000  0.0000  0.0000
 8322OM     OM1 8322   2.933   4.168   0.782  0.0000  0.0000  0.0000
 8323OM     OM1 8323   4.923   9.480   0.053  0.0000  0.0000  0.0000
 8324OM     OM1 8324   4.740   9.305   0.035  0.0000  0.0000  0.0000
 8325OM     OM1 8325   7.969   3.906   9.351  0.0000  0.0000  0.0000
 8326OM     OM1 8326   8.099   3.700   9.266  0.0000  0.0000  0.0000
 8327OM     OM1 8327   2.887   5.297   8.468  0.0000  0.0000  0.0000
 8328OM     OM1 8328   3.136   5.373   8.516  0.0000  0.0000  0.0000
 8329OM     OM1 8329   2.985   5.241   8.697  0.0000  0.0000  0.0000
 8330OM     OM1 8330   3.089   5.121   8.501  0.0000  0.0000  0.0000
 8331OM     OM1 8331   2.632   7.639   1.247  0.0000  0.0000  0.0000
 8332OM     OM1 8332   2.668   7.878   1.132  0.0000  0.0000  0.0000
 8333OM     OM1 8333   8.535   1.459   8.912  0.0000  0.0000  0.0000
 8334OM     OM1 8334   8.736   1.620   8.898  0.0000  0.0000  0.0000
 8335OM     OM1 8335   8.580   1.582   8.689  0.0000  0.0000  0.0000
 8336OM     OM1 8336   9.055   3.645   0.530  0.0000  0.0000  0.0000
 8337OM     OM1 8337   9.193   3.841   0.433  0.0000  0.0000  0.0000
 8338OM     OM1 8338   9.127   3.637   0.282  0.0000  0.0000  0.0000
 8339OM     OM1 8339   9.317   3.621   0.458  0.0000  0.0000  0.0000
 8340OM     OM1 8340   7.066   6.676   0.873  0.0000  0.0000  0.0000
 8341OM     OM1 8341   7.149   6.918   0.890  0.0000  0.0000  0.0000
 8342OM     OM1 8342   9.096   9.264   9.494  0.0000  0.0000  0.0000
 8343OM     OM1 8343   5.447   9.344   0.228  0.0000  0.0000  0.0000
 8344OM     OM1 8344   5.576   9.117   0.281  0.0000  0.0000  0.0000
 8345OM     OM1 8345   5.554   9.208   0.038  0.0000  0.0000  0.0000
 8346OM     OM1 8346   5.835   5.470   0.438  0.0000  0.0000  0.0000
 8347OM     OM1 8347   5.804   5.701   0.533  0.0000  0.0000  0.0000
 8348OM     OM1 8348   1.790   8.827   8.892  0.0000  0.0000  0.0000
 8349OM     OM1 8349   1.705   8.769   8.654  0.0000  0.0000  0.0000
 8350OM     OM1 8350   1.811   8.580   8.816  0.0000  0.0000  0.0000
 8351OM     OM1 8351   6.835   1.507   9.218  0.0000  0.0000  0.0000
 8352OM     OM1 8352   7.085   1.471   9.206  0.0000  0.0000  0.0000
 8353OM     OM1 8353   6.963   1.418   9.426  0.0000  0.0000  0.0000
 8354OM     OM1 8354   5.863   2.811   1.270  0.0000  0.0000  0.0000
 8355OM     OM1 8355   5.285   2.374   0.856  0.0000  0.0000  0.0000
 8356OM     OM1 8356   5.289   2.117   0.876  0.0000  0.0000  0.0000
 8357OM     OM1 8357   4.894   0.531   9.023  0.0000  0.0000  0.0000
 8358OM     OM1 8358   5.092   0.373   9.014  0.0000  0.0000  0.0000
 8359OM     OM1 8359   2.554   6.607   1.085  0.0000  0.0000  0.0000
 8360OM     OM1 8360   2.509   6.378   0.970  0.0000  0.0000  0.0000
 8361OM     OM1 8361   2.408   6.427   1.197  0.0000  0.0000  0.0000
 8362OM     OM1 8362   6.601   2.571   8.491  0.0000  0.0000  0.0000
 8363OM     OM1 8363   7.961   3.907   1.283  0.0000  0.0000  0.0000
 8364OM     OM1 8364   7.834   3.977   1.057  0.0000  0.0000  0.0000
 8365OM     OM1 8365   8.008   4.143   1.170  0.0000  0.0000  0.0000
 8366OM     OM1 8366   8.500   8.662   0.433  0.0000  0.0000  0.0000
 8367OM     OM1 8367   8.599   8.798   0.237  0.0000  0.0000  0.0000
 8368OM     OM1 8368   7.543   7.976   1.344  0.0000  0.0000  0.0000
 8369OM     OM1 8369   7.305   8.048   1.283  0.0000  0.0000  0.0000
 8370OM     OM1 8370   7.497   8.112   1.120  0.0000  0.0000  0.0000
 8371OM     OM1 8371   6.250   5.948   8.374  0.0000  0.0000  0.0000
 8372OM     OM1 8372   7.063   9.238   8.396  0.0000  0.0000  0.0000
 8373OM     OM1 8373   3.828   1.133   1.270  0.0000  0.0000  0.0000
 8374OM     OM1 8374   6.491   7.122   0.954  0.0000  0.0000  0.0000
 8375OM     OM1 8375   6.326   7.238   1.116  0.0000  0.0000  0.0000
 8376OM     OM1 8376   9.460   0.078   1.003  0.0000  0.0000  0.0000
 8377OM     OM1 8377   9.125   0.384   0.947  0.0000  0.0000  0.0000
 8378OM     OM1 8378   8.411   2.973   9.200  0.0000  0.0000  0.0000
 8379OM     OM1 8379   3.317   2.695   0.206  0.0000  0.0000  0.0000
 8380OM     OM1 8380   3.279   2.580   9.585  0.0000  0.0000  0.0000
 8381OM     OM1 8381   5.915   5.411   8.474  0.0000  0.0000  0.0000
 8382OM     OM1 8382   1.266   7.746   9.398  0.0000  0.0000  0.0000
 8383OM     OM1 8383   1.270   7.529   9.533  0.0000  0.0000  0.0000
 8384OM     OM1 8384   6.352   1.324   8.692  0.0000  0.0000  0.0000
 8385OM     OM1 8385   7.236   1.259   0.994  0.0000  0.0000  0.0000
 8386OM     OM1 8386   5.745   8.080   0.268  0.0000  0.0000  0.0000
 8387OM     OM1 8387   5.619   8.044   0.054  0.0000  0.0000  0.0000
 8388OM     OM1 8388   5.530   7.926   0.273  0.0000  0.0000  0.0000
 8389OM     OM1 8389   9.543   9.584   8.462  0.0000  0.0000  0.0000
 8390OM     OM1 8390   7.925   9.241   8.782  0.0000  0.0000  0.0000
 8391OM     OM1 8391   8.114   9.154   8.614  0.0000  0.0000  0.0000
 8392OM     OM1 8392   6.173   7.557   8.921  0.0000  0.0000  0.0000
 8393OM     OM1 8393   6.044   7.771   8.842  0.0000  0.0000  0.0000
 8394OM     OM1 8394   8.293   2.557   9.528  0.0000  0.0000  0.0000
 8395OM     OM1 8395   8.453   2.478   0.116  0.0000  0.0000  0.0000
 8396OM     OM1 8396   8.462   2.349   9.489  0.0000  0.0000  0.0000
 8397OM     OM1 8397   6.734   2.467   0.800  0.0000  0.0000  0.0000
 8398OM     OM1 8398   6.764   2.427   1.068  0.0000  0.0000  0.0000
 8399OM     OM1 8399   7.312   6.452   8.938  0.0000  0.0000  0.0000
 8400OM     OM1 8400   7.189   6.668   9.010  0.0000  0.0000  0.0000
 8401OM     OM1 8401   6.684   3.550   8.758  0.0000  0.0000  0.0000
 8402OM     OM1 8402   6.496   3.477   8.600  0.0000  0.0000  0.0000
 8403OM     OM1 8403   0.875   0.460   0.087  0.0000  0.0000  0.0000
 8404OM     OM1 8404   8.340   9.289   1.228  0.0000  0.0000  0.0000
 8405OM     OM1 8405   8.256   9.437   1.423  0.0000  0.0000  0.0000
 8406OM     OM1 8406   4.458   8.070   1.132  0.0000  0.0000  0.0000
 8407OM     OM1 8407   4.284   7.913   1.224  0.0000  0.0000  0.0000
 8408OM     OM1 8408   7.543   6.648   9.523  0.0000  0.0000  0.0000
 8409OM     OM1 8409   7.735   6.818   9.595  0.0000  0.0000  0.0000
 8410OM     OM1 8410   7.771   6.585   9.449  0.0000  0.0000  0.0000
 8411OM     OM1 8411   4.499   3.486   0.343  0.0000  0.0000  0.0000
 8412OM     OM1 8412   0.022   7.897   1.334  0.0000  0.0000  0.0000
 8413OM     OM1 8413   9.431   8.375   1.273  0.0000  0.0000  0.0000
 8414OM     OM1 8414   9.425   8.245   1.051  0.0000  0.0000  0.0000
 8415OM     OM1 8415   1.988   5.523   8.577  0.0000  0.0000  0.0000
 8416OM     OM1 8416   2.214   5.612   8.663  0.0000  0.0000  0.0000
 8417OM     OM1 8417   2.139   5.357   8.701  0.0000  0.0000  0.0000
 8418OM     OM1 8418   1.300   7.037   8.583  0.0000  0.0000  0.0000
 8419OM     OM1 8419   1.139   6.904   8.747  0.0000  0.0000  0.0000
 8420OM     OM1 8420   1.054   7.116   8.611  0.0000  0.0000  0.0000
 8421OM     OM1 8421   4.285   9.370   0.455  0.0000  0.0000  0.0000
 8422OM     OM1 8422   3.888   0.104   0.465  0.0000  0.0000  0.0000
 8423OM     OM1 8423   8.734   9.015   0.243  0.0000  0.0000  0.0000
 8424OM     OM1 8424   8.760   8.844   0.042  0.0000  0.0000  0.0000
 8425OM     OM1 8425   8.535   8.970   0.069  0.0000  0.0000  0.0000
 8426OM     OM1 8426   1.396   3.943   1.248  0.0000  0.0000  0.0000
 8427OM     OM1 8427   1.374   4.155   1.099  0.0000  0.0000  0.0000
 8428OM     OM1 8428   1.296   3.929   0.997  0.0000  0.0000  0.0000
 8429OM     OM1 8429   5.302   9.051   8.448  0.0000  0.0000  0.0000
 8430OM     OM1 8430   5.202   9.378   8.584  0.0000  0.0000  0.0000
 8431OM     OM1 8431   5.411   9.281   8.451  0.0000  0.0000  0.0000
 8432OM     OM1 8432   1.886   7.201   0.774  0.0000  0.0000  0.0000
 8433OM     OM1 8433   1.938   7.421   0.630  0.0000  0.0000  0.0000
 8434OM     OM1 8434   2.817   3.210   0.350  0.0000  0.0000  0.0000
 8435OM     OM1 8435   2.884   2.973   0.248  0.0000  0.0000  0.0000
 8436OM     OM1 8436   3.006   3.118   0.480  0.0000  0.0000  0.0000
 8437OM     OM1 8437   7.291   8.045   0.834  0.0000  0.0000  0.0000
 8438OM     OM1 8438   7.168   8.266   1.290  0.0000  0.0000  0.0000
 8439OM     OM1 8439   7.220   8.145   1.066  0.0000  0.0000  0.0000
 8440OM     OM1 8440   1.242   9.002   0.752  0.0000  0.0000  0.0000
 8441OM     OM1 8441   1.439   8.839   0.750  0.0000  0.0000  0.0000
 8442OM     OM1 8442   6.170   8.171   9.312  0.0000  0.0000  0.0000
 8443OM     OM1 8443   1.210   3.965   0.217  0.0000  0.0000  0.0000
 8444OM     OM1 8444   1.938   8.973   1.296  0.0000  0.0000  0.0000
 8445OM     OM1 8445   5.789   7.656   0.364  0.0000  0.0000  0.0000
 8446OM     OM1 8446   5.946   7.499   0.229  0.0000  0.0000  0.0000
 8447OM     OM1 8447   6.041   7.722   0.331  0.0000  0.0000  0.0000
 8448OM     OM1 8448   8.546   9.044   0.687  0.0000  0.0000  0.0000
 8449OM     OM1 8449   8.359   9.244   0.743  0.0000  0.0000  0.0000
 8450OM     OM1 8450   8.366   9.515   0.777  0.0000  0.0000  0.0000
 8451OM     OM1 8451   5.719   2.227   9.019  0.0000  0.0000  0.0000
 8452OM     OM1 8452   5.964   2.305   9.059  0.0000  0.0000  0.0000
 8453OM     OM1 8453   5.785   2.394   9.216  0.0000  0.0000  0.0000
 8454OM     OM1 8454   5.773   2.395   8.833  0.0000  0.0000  0.0000
 8455OM     OM1 8455   3.445   6.928   9.062  0.0000  0.0000  0.0000
 8456OM     OM1 8456   5.189   6.782   8.830  0.0000  0.0000  0.0000
 8457OM     OM1 8457   0.687   0.665   0.411  0.0000  0.0000  0.0000
 8458OM     OM1 8458   0.562   0.656   0.632  0.0000  0.0000  0.0000
 8459OM     OM1 8459   3.269   0.345   1.259  0.0000  0.0000  0.0000
 8460OM     OM1 8460   2.578   9.520   0.793  0.0000  0.0000  0.0000
 8461OM     OM1 8461   2.577   9.268   0.690  0.0000  0.0000  0.0000
 8462OM     OM1 8462   3.928   0.962   9.350  0.0000  0.0000  0.0000
 8463OM     OM1 8463   3.871   1.199   9.428  0.0000  0.0000  0.0000
 8464OM     OM1 8464   4.104   1.069   9.488  0.0000  0.0000  0.0000
 8465OM     OM1 8465   9.315   4.540   9.286  0.0000  0.0000  0.0000
 8466OM     OM1 8466   9.351   4.281   9.276  0.0000  0.0000  0.0000
 8467OM     OM1 8467   7.697   8.107   0.649  0.0000  0.0000  0.0000
 8468OM     OM1 8468   1.917   7.676   0.679  0.0000  0.0000  0.0000
 8469OM     OM1 8469   1.788   7.568   0.872  0.0000  0.0000  0.0000
 8470OM     OM1 8470   1.782   7.820   0.875  0.0000  0.0000  0.0000
 8471OM     OM1 8471   2.013   7.703   0.918  0.0000  0.0000  0.0000
 8472OM     OM1 8472   4.719   4.584   8.778  0.0000  0.0000  0.0000
 8473OM     OM1 8473   2.483   9.091   8.446  0.0000  0.0000  0.0000
 8474OM     OM1 8474   2.608   8.896   8.526  0.0000  0.0000  0.0000
 8475OM     OM1 8475   3.636   3.300   8.471  0.0000  0.0000  0.0000
 8476OM     OM1 8476   6.715   1.663   0.209  0.0000  0.0000  0.0000
 8477OM     OM1 8477   6.704   1.669   0.464  0.0000  0.0000  0.0000
 8478OM     OM1 8478   0.957   2.126   9.227  0.0000  0.0000  0.0000
 8479OM     OM1 8479   1.012   1.946   9.040  0.0000  0.0000  0.0000
 8480OM     OM1 8480   0.766   2.004   9.088  0.0000  0.0000  0.0000
 8481OM     OM1 8481   7.515   0.139   0.931  0.0000  0.0000  0.0000
 8482OM     OM1 8482   7.468   0.350   1.081  0.0000  0.0000  0.0000
 8483OM     OM1 8483   5.448   9.581   1.087  0.0000  0.0000  0.0000
 8484OM     OM1 8484   1.252   6.254   9.162  0.0000  0.0000  0.0000
 8485OM     OM1 8485   1.472   6.391   9.188  0.0000  0.0000  0.0000
 8486OM     OM1 8486   6.499   7.888   0.356  0.0000  0.0000  0.0000
 8487OM     OM1 8487   6.251   7.867   0.286  0.0000  0.0000  0.0000
 8488OM     OM1 8488   6.436   7.731   0.161  0.0000  0.0000  0.0000
 8489OM     OM1 8489   3.886   8.498   1.055  0.0000  0.0000  0.0000
 8490OM     OM1 8490   4.143   8.523   0.984  0.0000  0.0000  0.0000
 8491OM     OM1 8491   4.021   8.311   0.920  0.0000  0.0000  0.0000
 8492OM     OM1 8492   3.726   7.545   8.511  0.0000  0.0000  0.0000
 8493OM     OM1 8493   7.004   0.660   8.351  0.0000  0.0000  0.0000
 8494OM     OM1 8494   7.268   0.624   8.304  0.0000  0.0000  0.0000
 8495OM     OM1 8495   0.366   3.734   0.088  0.0000  0.0000  0.0000
 8496OM     OM1 8496   0.613   3.682   0.103  0.0000  0.0000  0.0000
 8497OM     OM1 8497   7.345   7.671   1.237  0.0000  0.0000  0.0000
 8498OM     OM1 8498   7.244   7.186   1.173  0.0000  0.0000  0.0000
 8499OM     OM1 8499   7.142   7.660   1.083  0.0000  0.0000  0.0000
 8500OM     OM1 8500   7.292   7.451   1.107  0.0000  0.0000  0.0000
 8501OM     OM1 8501   2.518   5.174   1.269  0.0000  0.0000  0.0000
 8502OM     OM1 8502   4.211   7.288   9.358  0.0000  0.0000  0.0000
 8503OM     OM1 8503   4.369   7.492   9.338  0.0000  0.0000  0.0000
 8504OM     OM1 8504   4.462   7.252   9.361  0.0000  0.0000  0.0000
 8505OM     OM1 8505   3.317   0.880   8.863  0.0000  0.0000  0.0000
 8506OM     OM1 8506   3.163   1.086   8.868  0.0000  0.0000  0.0000
 8507OM     OM1 8507   0.644   7.229   0.691  0.0000  0.0000  0.0000
 8508OM     OM1 8508   8.655   6.005   0.633  0.0000  0.0000  0.0000
 8509OM     OM1 8509   8.706   5.965   0.890  0.0000  0.0000  0.0000
 8510OM     OM1 8510   8.897   5.976   0.715  0.0000  0.0000  0.0000
 8511OM     OM1 8511   8.961   7.016   1.220  0.0000  0.0000  0.0000
 8512OM     OM1 8512   9.183   7.124   1.144  0.0000  0.0000  0.0000
 8513OM     OM1 8513   2.737   8.424   9.334  0.0000  0.0000  0.0000
 8514OM     OM1 8514   1.236   8.374   0.325  0.0000  0.0000  0.0000
 8515OM     OM1 8515   1.303   8.622   0.288  0.0000  0.0000  0.0000
 8516OM     OM1 8516   1.118   8.511   0.137  0.0000  0.0000  0.0000
 8517OM     OM1 8517   9.469   1.622   9.369  0.0000  0.0000  0.0000
 8518OM     OM1 8518   1.897   2.495   1.161  0.0000  0.0000  0.0000
 8519OM     OM1 8519   5.528   7.669   0.345  0.0000  0.0000  0.0000
 8520OM     OM1 8520   8.267   5.318   8.125  0.0000  0.0000  0.0000
 8521OM     OM1 8521   0.462   2.980   8.877  0.0000  0.0000  0.0000
 8522OM     OM1 8522   0.256   3.116   8.979  0.0000  0.0000  0.0000
 8523OM     OM1 8523   6.183   1.513   8.657  0.0000  0.0000  0.0000
 8524OM     OM1 8524   6.082   1.743   8.740  0.0000  0.0000  0.0000
 8525OM     OM1 8525   6.018   0.618   0.434  0.0000  0.0000  0.0000
 8526OM     OM1 8526   6.259   0.510   0.479  0.0000  0.0000  0.0000
 8527OM     OM1 8527   6.125   0.606   0.679  0.0000  0.0000  0.0000
 8528OM     OM1 8528   6.847   1.501   0.044  0.0000  0.0000  0.0000
 8529OM     OM1 8529   6.942   1.262   0.037  0.0000  0.0000  0.0000
 8530OM     OM1 8530   8.984   5.716   8.709  0.0000  0.0000  0.0000
 8531OM     OM1 8531   9.230   5.645   8.736  0.0000  0.0000  0.0000
 8532OM     OM1 8532   2.984   2.284   9.404  0.0000  0.0000  0.0000
 8533OM     OM1 8533   2.810   2.231   9.596  0.0000  0.0000  0.0000
 8534OM     OM1 8534   3.017   2.076   9.572  0.0000  0.0000  0.0000
 8535OM     OM1 8535   3.732   8.749   8.748  0.0000  0.0000  0.0000
 8536OM     OM1 8536   3.555   8.554   8.740  0.0000  0.0000  0.0000
 8537OM     OM1 8537   3.616   8.660   8.966  0.0000  0.0000  0.0000
 8538OM     OM1 8538   3.025   1.038   9.092  0.0000  0.0000  0.0000
 8539OM     OM1 8539   2.906   1.018   8.863  0.0000  0.0000  0.0000
 8540OM     OM1 8540   0.634   7.352   8.968  0.0000  0.0000  0.0000
 8541OM     OM1 8541   0.503   7.150   9.082  0.0000  0.0000  0.0000
 8542OM     OM1 8542   0.681   7.101   8.905  0.0000  0.0000  0.0000
 8543OM     OM1 8543   6.162   6.822   8.843  0.0000  0.0000  0.0000
 8544OM     OM1 8544   6.247   7.049   8.940  0.0000  0.0000  0.0000
 8545OM     OM1 8545   6.104   7.040   8.721  0.0000  0.0000  0.0000
 8546OM     OM1 8546   5.270   9.545   0.203  0.0000  0.0000  0.0000
 8547OM     OM1 8547   8.488   9.424   8.841  0.0000  0.0000  0.0000
 8548OM     OM1 8548   8.359   9.407   9.061  0.0000  0.0000  0.0000
 8549OM     OM1 8549   8.500   0.021   9.012  0.0000  0.0000  0.0000
 8550OM     OM1 8550   0.954   4.561   1.282  0.0000  0.0000  0.0000
 8551OM     OM1 8551   2.651   2.416   9.217  0.0000  0.0000  0.0000
 8552OM     OM1 8552   2.436   2.354   9.076  0.0000  0.0000  0.0000
 8553OM     OM1 8553   2.592   2.157   9.151  0.0000  0.0000  0.0000
 8554OM     OM1 8554   2.363   3.616   1.056  0.0000  0.0000  0.0000
 8555OM     OM1 8555   2.194   3.440   0.974  0.0000  0.0000  0.0000
 8556OM     OM1 8556   3.741   7.947   9.054  0.0000  0.0000  0.0000
 8557OM     OM1 8557   3.873   8.164   9.093  0.0000  0.0000  0.0000
 8558OM     OM1 8558   5.363   2.621   0.817  0.0000  0.0000  0.0000
 8559OM     OM1 8559   5.574   2.772   0.870  0.0000  0.0000  0.0000
 8560OM     OM1 8560   9.288   3.711   0.088  0.0000  0.0000  0.0000
 8561OM     OM1 8561   9.051   3.810   0.109  0.0000  0.0000  0.0000
 8562OM     OM1 8562   0.180   1.586   1.162  0.0000  0.0000  0.0000
 8563OM     OM1 8563   9.205   8.199   0.908  0.0000  0.0000  0.0000
 8564OM     OM1 8564   6.544   2.375   1.164  0.0000  0.0000  0.0000
 8565OM     OM1 8565   6.460   2.583   1.018  0.0000  0.0000  0.0000
 8566OM     OM1 8566   3.308   4.736   0.490  0.0000  0.0000  0.0000
 8567OM     OM1 8567   5.593   5.172   9.475  0.0000  0.0000  0.0000
 8568OM     OM1 8568   7.145   3.413   8.550  0.0000  0.0000  0.0000
 8569OM     OM1 8569   7.170   3.244   8.360  0.0000  0.0000  0.0000
 8570OM     OM1 8570   3.162   6.376   1.034  0.0000  0.0000  0.0000
 8571OM     OM1 8571   3.042   6.153   1.069  0.0000  0.0000  0.0000
 8572OM     OM1 8572   3.298   6.172   0.989  0.0000  0.0000  0.0000
 8573OM     OM1 8573   6.838   8.887   1.195  0.0000  0.0000  0.0000
 8574OM     OM1 8574   6.651   9.000   1.051  0.0000  0.0000  0.0000
 8575OM     OM1 8575   0.597   8.330   0.073  0.0000  0.0000  0.0000
 8576OM     OM1 8576   4.956   7.469   0.160  0.0000  0.0000  0.0000
 8577OM     OM1 8577   4.838   7.344   9.556  0.0000  0.0000  0.0000
 8578OM     OM1 8578   4.844   7.602   9.575  0.0000  0.0000  0.0000
 8579OM     OM1 8579   4.698   7.475   0.142  0.0000  0.0000  0.0000
 8580OM     OM1 8580   4.014   5.501   9.049  0.0000  0.0000  0.0000
 8581OM     OM1 8581   3.995   5.731   9.154  0.0000  0.0000  0.0000
 8582OM     OM1 8582   8.200   5.797   0.951  0.0000  0.0000  0.0000
 8583OM     OM1 8583   6.608   9.008   0.786  0.0000  0.0000  0.0000
 8584OM     OM1 8584   6.493   8.847   0.621  0.0000  0.0000  0.0000
 8585OM     OM1 8585   6.761   8.893   0.614  0.0000  0.0000  0.0000
 8586OM     OM1 8586   4.340   0.921   9.087  0.0000  0.0000  0.0000
 8587OM     OM1 8587   4.123   0.849   9.199  0.0000  0.0000  0.0000
 8588OM     OM1 8588   6.071   5.233   1.143  0.0000  0.0000  0.0000
 8589OM     OM1 8589   6.031   5.052   0.966  0.0000  0.0000  0.0000
 8590OM     OM1 8590   4.680   3.845   8.794  0.0000  0.0000  0.0000
 8591OM     OM1 8591   4.500   3.660   8.796  0.0000  0.0000  0.0000
 8592OM     OM1 8592   4.733   3.608   8.693  0.0000  0.0000  0.0000
 8593OM     OM1 8593   9.350   1.408   0.707  0.0000  0.0000  0.0000
 8594OM     OM1 8594   0.016   1.719   0.456  0.0000  0.0000  0.0000
 8595OM     OM1 8595   9.498   1.725   0.673  0.0000  0.0000  0.0000
 8596OM     OM1 8596   8.406   2.444   8.653  0.0000  0.0000  0.0000
 8597OM     OM1 8597   8.641   2.450   8.774  0.0000  0.0000  0.0000
 8598OM     OM1 8598   8.607   2.290   8.579  0.0000  0.0000  0.0000
 8599OM     OM1 8599   0.648   6.552   0.929  0.0000  0.0000  0.0000
 8600OM     OM1 8600   0.540   6.782   0.859  0.0000  0.0000  0.0000
 8601OM     OM1 8601   0.564   6.719   1.113  0.0000  0.0000  0.0000
 8602OM     OM1 8602   0.156   8.152   9.518  0.0000  0.0000  0.0000
 8603OM     OM1 8603   9.542   8.084   0.023  0.0000  0.0000  0.0000
 8604OM     OM1 8604   2.468   4.665   9.222  0.0000  0.0000  0.0000
 8605OM     OM1 8605   8.816   2.521   0.393  0.0000  0.0000  0.0000
 8606OM     OM1 8606   8.948   2.492   0.617  0.0000  0.0000  0.0000
 8607OM     OM1 8607   8.781   2.306   0.559  0.0000  0.0000  0.0000
 8608OM     OM1 8608   8.700   2.553   0.612  0.0000  0.0000  0.0000
 8609OM     OM1 8609   1.844   0.932   8.780  0.0000  0.0000  0.0000
 8610OM     OM1 8610   8.603   0.168   0.210  0.0000  0.0000  0.0000
 8611OM     OM1 8611   8.381   0.044   0.116  0.0000  0.0000  0.0000
 8612OM     OM1 8612   8.209   0.043   0.354  0.0000  0.0000  0.0000
 8613OM     OM1 8613   7.893   9.454   0.030  0.0000  0.0000  0.0000
 8614OM     OM1 8614   8.147   9.500   0.069  0.0000  0.0000  0.0000
 8615OM     OM1 8615   1.460   4.886   9.572  0.0000  0.0000  0.0000
 8616OM     OM1 8616   1.544   5.103   0.082  0.0000  0.0000  0.0000
 8617OM     OM1 8617   1.780   5.048   1.358  0.0000  0.0000  0.0000
 8618OM     OM1 8618   1.943   5.228   1.274  0.0000  0.0000  0.0000
 8619OM     OM1 8619   1.965   3.482   1.109  0.0000  0.0000  0.0000
 8620OM     OM1 8620   2.016   3.255   0.984  0.0000  0.0000  0.0000
 8621OM     OM1 8621   9.273   3.262   8.327  0.0000  0.0000  0.0000
 8622OM     OM1 8622   5.547   4.222   8.905  0.0000  0.0000  0.0000
 8623OM     OM1 8623   5.861   4.273   9.068  0.0000  0.0000  0.0000
 8624OM     OM1 8624   5.762   4.464   9.224  0.0000  0.0000  0.0000
 8625OM     OM1 8625   0.539   4.959   9.499  0.0000  0.0000  0.0000
 8626OM     OM1 8626   6.491   1.637   9.445  0.0000  0.0000  0.0000
 8627OM     OM1 8627   6.578   1.886   9.433  0.0000  0.0000  0.0000
 8628OM     OM1 8628   6.714   1.698   9.558  0.0000  0.0000  0.0000
 8629OM     OM1 8629   6.701   1.708   9.298  0.0000  0.0000  0.0000
 8630OM     OM1 8630   7.196   9.276   1.071  0.0000  0.0000  0.0000
 8631OM     OM1 8631   0.162   6.245   8.982  0.0000  0.0000  0.0000
 8632OM     OM1 8632   0.313   6.199   9.185  0.0000  0.0000  0.0000
 8633OM     OM1 8633   0.286   6.024   8.992  0.0000  0.0000  0.0000
 8634OM     OM1 8634   3.594   1.888   1.348  0.0000  0.0000  0.0000
 8635OM     OM1 8635   3.443   2.085   1.402  0.0000  0.0000  0.0000
 8636OM     OM1 8636   3.561   2.087   1.170  0.0000  0.0000  0.0000
 8637OM     OM1 8637   8.559   7.295   8.723  0.0000  0.0000  0.0000
 8638OM     OM1 8638   8.514   7.200   8.956  0.0000  0.0000  0.0000
 8639OM     OM1 8639   8.314   7.256   8.795  0.0000  0.0000  0.0000
 8640OM     OM1 8640   2.283   8.156   9.443  0.0000  0.0000  0.0000
 8641OM     OM1 8641   5.640   5.628   9.118  0.0000  0.0000  0.0000
 8642OM     OM1 8642   5.719   5.530   9.343  0.0000  0.0000  0.0000
 8643OM     OM1 8643   4.282   1.641   9.349  0.0000  0.0000  0.0000
 8644OM     OM1 8644   4.322   1.475   9.551  0.0000  0.0000  0.0000
 8645OM     OM1 8645   2.310   1.305   1.003  0.0000  0.0000  0.0000
 8646OM     OM1 8646   2.492   1.201   0.860  0.0000  0.0000  0.0000
 8647OM     OM1 8647   0.705   1.365   8.381  0.0000  0.0000  0.0000
 8648OM     OM1 8648   0.734   1.123   8.332  0.0000  0.0000  0.0000
 8649OM     OM1 8649   0.050   5.897   0.334  0.0000  0.0000  0.0000
 8650OM     OM1 8650   0.035   5.888   0.074  0.0000  0.0000  0.0000
 8651OM     OM1 8651   7.257   2.592   0.372  0.0000  0.0000  0.0000
 8652OM     OM1 8652   5.891   8.290   0.226  0.0000  0.0000  0.0000
 8653OM     OM1 8653   1.597   8.092   0.659  0.0000  0.0000  0.0000
 8654OM     OM1 8654   1.668   8.264   0.485  0.0000  0.0000  0.0000
 8655OM     OM1 8655   4.359   3.857   0.627  0.0000  0.0000  0.0000
 8656OM     OM1 8656   4.424   3.708   0.835  0.0000  0.0000  0.0000
 8657OM     OM1 8657   7.800   2.599   8.389  0.0000  0.0000  0.0000
 8658OM     OM1 8658   7.856   2.852   8.316  0.0000  0.0000  0.0000
 8659OM     OM1 8659   4.375   2.103   8.711  0.0000  0.0000  0.0000
 8660OM     OM1 8660   1.027   3.135   9.083  0.0000  0.0000  0.0000
 8661OM     OM1 8661   1.044   3.221   9.337  0.0000  0.0000  0.0000
 8662OM     OM1 8662   1.773   5.395   8.668  0.0000  0.0000  0.0000
 8663OM     OM1 8663   1.542   5.384   8.783  0.0000  0.0000  0.0000
 8664OM     OM1 8664   1.605   5.181   8.643  0.0000  0.0000  0.0000
 8665OM     OM1 8665   1.551   5.398   8.521  0.0000  0.0000  0.0000
 8666OM     OM1 8666   5.543   3.281   9.024  0.0000  0.0000  0.0000
 8667OM     OM1 8667   5.295   3.188   9.128  0.0000  0.0000  0.0000
 8668OM     OM1 8668   5.349   3.194   8.666  0.0000  0.0000  0.0000
 8669OM     OM1 8669   2.921   0.217   9.431  0.0000  0.0000  0.0000
 8670OM     OM1 8670   9.424   4.643   9.001  0.0000  0.0000  0.0000
 8671OM     OM1 8671   9.481   4.734   8.768  0.0000  0.0000  0.0000
 8672OM     OM1 8672   5.019   2.926   8.469  0.0000  0.0000  0.0000
 8673OM     OM1 8673   1.634   2.277   8.747  0.0000  0.0000  0.0000
 8674OM     OM1 8674   1.830   2.409   8.846  0.0000  0.0000  0.0000
 8675OM     OM1 8675   3.241   3.688   0.741  0.0000  0.0000  0.0000
 8676OM     OM1 8676   3.050   3.663   0.571  0.0000  0.0000  0.0000
 8677OM     OM1 8677   2.965   3.714   0.801  0.0000  0.0000  0.0000
 8678OM     OM1 8678   0.250   1.697   0.336  0.0000  0.0000  0.0000
 8679OM     OM1 8679   5.298   6.833   0.584  0.0000  0.0000  0.0000
 8680OM     OM1 8680   5.087   6.966   0.475  0.0000  0.0000  0.0000
 8681OM     OM1 8681   1.292   2.806   9.404  0.0000  0.0000  0.0000
 8682OM     OM1 8682   1.263   2.605   9.556  0.0000  0.0000  0.0000
 8683OM     OM1 8683   1.236   2.578   9.305  0.0000  0.0000  0.0000
 8684OM     OM1 8684   1.046   2.705   9.418  0.0000  0.0000  0.0000
 8685OM     OM1 8685   0.151   2.150   0.125  0.0000  0.0000  0.0000
 8686OM     OM1 8686   1.618   7.900   8.744  0.0000  0.0000  0.0000
 8687OM     OM1 8687   1.787   7.974   8.931  0.0000  0.0000  0.0000
 8688OM     OM1 8688   3.211   6.670   0.126  0.0000  0.0000  0.0000
 8689OM     OM1 8689   3.255   6.427   0.036  0.0000  0.0000  0.0000
 8690OM     OM1 8690   5.654   8.032   9.403  0.0000  0.0000  0.0000
 8691OM     OM1 8691   9.059   2.675   0.480  0.0000  0.0000  0.0000
 8692OM     OM1 8692   9.016   2.913   0.418  0.0000  0.0000  0.0000
 8693OM     OM1 8693   8.920   2.716   0.268  0.0000  0.0000  0.0000
 8694OM     OM1 8694   9.167   2.777   0.253  0.0000  0.0000  0.0000
 8695OM     OM1 8695   5.043   0.639   0.385  0.0000  0.0000  0.0000
 8696OM     OM1 8696   8.132   7.887   8.813  0.0000  0.0000  0.0000
 8697OM     OM1 8697   0.622   5.648   8.775  0.0000  0.0000  0.0000
 8698OM     OM1 8698   8.612   1.316   0.406  0.0000  0.0000  0.0000
 8699OM     OM1 8699   8.772   1.363   0.214  0.0000  0.0000  0.0000
 8700OM     OM1 8700   7.302   9.078   1.202  0.0000  0.0000  0.0000
 8701OM     OM1 8701   7.107   8.911   1.218  0.0000  0.0000  0.0000
 8702OM     OM1 8702   7.530   7.427   0.530  0.0000  0.0000  0.0000
 8703OM     OM1 8703   7.342   7.610   0.483  0.0000  0.0000  0.0000
 8704OM     OM1 8704   5.966   1.109   0.312  0.0000  0.0000  0.0000
 8705OM     OM1 8705   5.931   1.351   0.226  0.0000  0.0000  0.0000
 8706OM     OM1 8706   4.714   7.269   9.330  0.0000  0.0000  0.0000
 8707OM     OM1 8707   7.935   6.455   8.484  0.0000  0.0000  0.0000
 8708OM     OM1 8708   7.919   6.679   8.602  0.0000  0.0000  0.0000
 8709OM     OM1 8709   7.866   6.673   8.343  0.0000  0.0000  0.0000
 8710OM     OM1 8710   9.516   0.867   8.970  0.0000  0.0000  0.0000
 8711OM     OM1 8711   0.052   0.709   8.822  0.0000  0.0000  0.0000
 8712OM     OM1 8712   6.388   3.998   0.239  0.0000  0.0000  0.0000
 8713OM     OM1 8713   0.636   4.642   1.160  0.0000  0.0000  0.0000
 8714OM     OM1 8714   0.501   4.836   1.046  0.0000  0.0000  0.0000
 8715OM     OM1 8715   2.241   4.123   1.073  0.0000  0.0000  0.0000
 8716OM     OM1 8716   5.129   8.500   9.212  0.0000  0.0000  0.0000
 8717OM     OM1 8717   4.871   8.467   9.247  0.0000  0.0000  0.0000
 8718OM     OM1 8718   4.972   8.696   9.148  0.0000  0.0000  0.0000
 8719OM     OM1 8719   3.745   4.242   0.124  0.0000  0.0000  0.0000
 8720OM     OM1 8720   3.741   4.500   0.123  0.0000  0.0000  0.0000
 8721OM     OM1 8721   1.341   6.388   0.555  0.0000  0.0000  0.0000
 8722OM     OM1 8722   1.308   6.187   0.409  0.0000  0.0000  0.0000
 8723OM     OM1 8723   8.920   7.484   0.965  0.0000  0.0000  0.0000
 8724OM     OM1 8724   8.807   7.706   0.912  0.0000  0.0000  0.0000
 8725OM     OM1 8725   8.909   7.676   1.150  0.0000  0.0000  0.0000
 8726OM     OM1 8726   4.642   9.102   9.504  0.0000  0.0000  0.0000
 8727OM     OM1 8727   4.473   8.962   9.348  0.0000  0.0000  0.0000
 8728OM     OM1 8728   9.285   4.281   0.437  0.0000  0.0000  0.0000
 8729OM     OM1 8729   9.502   4.175   0.348  0.0000  0.0000  0.0000
 8730OM     OM1 8730   9.330   4.051   0.519  0.0000  0.0000  0.0000
 8731OM     OM1 8731   0.435   8.696   8.446  0.0000  0.0000  0.0000
 8732OM     OM1 8732   0.355   8.463   8.528  0.0000  0.0000  0.0000
 8733OM     OM1 8733   5.165   2.116   9.327  0.0000  0.0000  0.0000
 8734OM     OM1 8734   7.804   8.930   0.666  0.0000  0.0000  0.0000
 8735OM     OM1 8735   7.773   9.184   0.967  0.0000  0.0000  0.0000
 8736OM     OM1 8736   4.732   7.645   0.337  0.0000  0.0000  0.0000
 8737OM     OM1 8737   6.208   9.197   9.267  0.0000  0.0000  0.0000
 8738OM     OM1 8738   6.477   3.442   0.543  0.0000  0.0000  0.0000
 8739OM     OM1 8739   6.678   3.286   0.594  0.0000  0.0000  0.0000
 8740OM     OM1 8740   6.550   3.417   0.787  0.0000  0.0000  0.0000
 8741OM     OM1 8741   8.282   5.156   0.602  0.0000  0.0000  0.0000
 8742OM     OM1 8742   2.399   3.693   9.469  0.0000  0.0000  0.0000
 8743OM     OM1 8743   2.590   3.763   9.303  0.0000  0.0000  0.0000
 8744OM     OM1 8744   1.898   5.586   0.365  0.0000  0.0000  0.0000
 8745OM     OM1 8745   1.978   5.410   0.541  0.0000  0.0000  0.0000
 8746OM     OM1 8746   1.049   6.776   8.964  0.0000  0.0000  0.0000
 8747OM     OM1 8747   0.803   1.150   0.527  0.0000  0.0000  0.0000
 8748OM     OM1 8748   0.572   1.073   0.448  0.0000  0.0000  0.0000
 8749OM     OM1 8749   0.642   1.073   0.712  0.0000  0.0000  0.0000
 8750OM     OM1 8750   1.945   2.724   9.421  0.0000  0.0000  0.0000
 8751OM     OM1 8751   0.688   1.114   0.215  0.0000  0.0000  0.0000
 8752OM     OM1 8752   0.139   9.145   9.489  0.0000  0.0000  0.0000
 8753OM     OM1 8753   9.508   9.179   9.365  0.0000  0.0000  0.0000
 8754OM     OM1 8754   3.506   4.407   9.280  0.0000  0.0000  0.0000
 8755OM     OM1 8755   3.615   4.510   9.068  0.0000  0.0000  0.0000
 8756OM     OM1 8756   3.644   4.632   9.300  0.0000  0.0000  0.0000
 8757OM     OM1 8757   0.266   8.988   0.040  0.0000  0.0000  0.0000
 8758OM     OM1 8758   2.715   0.364   9.485  0.0000  0.0000  0.0000
 8759OM     OM1 8759   2.741   0.631   9.517  0.0000  0.0000  0.0000
 8760OM     OM1 8760   3.452   5.550   8.202  0.0000  0.0000  0.0000
 8761OM     OM1 8761   3.324   5.366   8.324  0.0000  0.0000  0.0000
 8762OM     OM1 8762   2.454   4.128   0.621  0.0000  0.0000  0.0000
 8763OM     OM1 8763   5.891   7.184   8.708  0.0000  0.0000  0.0000
 8764OM     OM1 8764   0.930   6.248   0.670  0.0000  0.0000  0.0000
 8765OM     OM1 8765   1.188   6.165   0.719  0.0000  0.0000  0.0000
 8766OM     OM1 8766   1.293   2.541   0.566  0.0000  0.0000  0.0000
 8767OM     OM1 8767   1.295   2.281   0.590  0.0000  0.0000  0.0000
 8768OM     OM1 8768   0.364   8.629   9.039  0.0000  0.0000  0.0000
 8769OM     OM1 8769   0.591   8.688   9.162  0.0000  0.0000  0.0000
 8770OM     OM1 8770   5.018   5.789   9.561  0.0000  0.0000  0.0000
 8771OM     OM1 8771   5.031   5.754   0.223  0.0000  0.0000  0.0000
 8772OM     OM1 8772   0.746   6.127   0.505  0.0000  0.0000  0.0000
 8773OM     OM1 8773   4.661   7.280   0.928  0.0000  0.0000  0.0000
 8774OM     OM1 8774   4.439   7.148   0.870  0.0000  0.0000  0.0000
 8775OM     OM1 8775   8.532   6.365   0.095  0.0000  0.0000  0.0000
 8776OM     OM1 8776   8.445   6.119   0.034  0.0000  0.0000  0.0000
 8777OM     OM1 8777   2.418   5.007   1.086  0.0000  0.0000  0.0000
 8778OM     OM1 8778   7.929   3.382   0.802  0.0000  0.0000  0.0000
 8779OM     OM1 8779   7.955   3.493   0.571  0.0000  0.0000  0.0000
 8780OM     OM1 8780   8.875   3.993   0.756  0.0000  0.0000  0.0000
 8781OM     OM1 8781   9.069   4.017   0.576  0.0000  0.0000  0.0000
 8782OM     OM1 8782   8.838   3.915   0.502  0.0000  0.0000  0.0000
 8783OM     OM1 8783   1.714   9.421   9.293  0.0000  0.0000  0.0000
 8784OM     OM1 8784   1.909   9.347   9.447  0.0000  0.0000  0.0000
 8785OM     OM1 8785   4.110   3.101   1.136  0.0000  0.0000  0.0000
 8786OM     OM1 8786   3.756   9.263   9.340  0.0000  0.0000  0.0000
 8787OM     OM1 8787   3.901   9.177   9.533  0.0000  0.0000  0.0000
 8788OM     OM1 8788   1.686   2.485   9.053  0.0000  0.0000  0.0000
 8789OM     OM1 8789   1.931   2.573   9.020  0.0000  0.0000  0.0000
 8790OM     OM1 8790   4.348   1.456   0.718  0.0000  0.0000  0.0000
 8791OM     OM1 8791   4.266   1.515   0.486  0.0000  0.0000  0.0000
 8792OM     OM1 8792   4.477   1.361   0.523  0.0000  0.0000  0.0000
 8793OM     OM1 8793   3.009   1.174   8.466  0.0000  0.0000  0.0000
 8794OM     OM1 8794   3.261   1.188   8.412  0.0000  0.0000  0.0000
 8795OM     OM1 8795   0.340   2.822   9.272  0.0000  0.0000  0.0000
 8796OM     OM1 8796   6.829   6.679   9.266  0.0000  0.0000  0.0000
 8797OM     OM1 8797   6.864   6.463   9.399  0.0000  0.0000  0.0000
 8798OM     OM1 8798   5.159   1.043   0.960  0.0000  0.0000  0.0000
 8799OM     OM1 8799   5.286   0.969   1.185  0.0000  0.0000  0.0000
 8800OM     OM1 8800   6.585   8.680   9.113  0.0000  0.0000  0.0000
 8801OM     OM1 8801   6.428   8.478   9.084  0.0000  0.0000  0.0000
 8802OM     OM1 8802   6.599   8.531   8.899  0.0000  0.0000  0.0000
 8803OM     OM1 8803   7.582   5.130   9.100  0.0000  0.0000  0.0000
 8804OM     OM1 8804   7.348   5.217   9.138  0.0000  0.0000  0.0000
 8805OM     OM1 8805   3.997   2.010   9.567  0.0000  0.0000  0.0000
 8806OM     OM1 8806   4.205   2.093   0.084  0.0000  0.0000  0.0000
 8807OM     OM1 8807   3.972   2.065   0.222  0.0000  0.0000  0.0000
 8808OM     OM1 8808   4.229   0.410   8.693  0.0000  0.0000  0.0000
 8809OM     OM1 8809   7.242   5.305   8.919  0.0000  0.0000  0.0000
 8810OM     OM1 8810   7.462   5.411   8.992  0.0000  0.0000  0.0000
 8811OM     OM1 8811   7.247   5.464   9.130  0.0000  0.0000  0.0000
 8812OM     OM1 8812   4.665   9.071   0.466  0.0000  0.0000  0.0000
 8813OM     OM1 8813   6.302   5.681   8.403  0.0000  0.0000  0.0000
 8814OM     OM1 8814   6.489   9.534   0.571  0.0000  0.0000  0.0000
 8815OM     OM1 8815   2.335   6.345   8.406  0.0000  0.0000  0.0000
 8816OM     OM1 8816   2.426   6.274   8.695  0.0000  0.0000  0.0000
 8817OM     OM1 8817   5.388   6.404   9.142  0.0000  0.0000  0.0000
 8818OM     OM1 8818   3.787   6.035   0.369  0.0000  0.0000  0.0000
 8819OM     OM1 8819   3.780   6.229   0.189  0.0000  0.0000  0.0000
 8820OM     OM1 8820   1.418   0.357   9.531  0.0000  0.0000  0.0000
 8821OM     OM1 8821   1.345   2.286   8.386  0.0000  0.0000  0.0000
 8822OM     OM1 8822   9.453   9.218   1.330  0.0000  0.0000  0.0000
 8823OM     OM1 8823   3.153   8.235   8.744  0.0000  0.0000  0.0000
 8824OM     OM1 8824   3.009   8.031   8.690  0.0000  0.0000  0.0000
 8825OM     OM1 8825   3.714   3.905   0.750  0.0000  0.0000  0.0000
 8826OM     OM1 8826   5.662   3.439   8.846  0.0000  0.0000  0.0000
 8827OM     OM1 8827   2.672   9.285   8.574  0.0000  0.0000  0.0000
 8828OM     OM1 8828   2.855   9.348   8.388  0.0000  0.0000  0.0000
 8829OM     OM1 8829   2.739   9.103   8.416  0.0000  0.0000  0.0000
 8830OM     OM1 8830   5.431   8.904   0.270  0.0000  0.0000  0.0000
 8831OM     OM1 8831   7.368   2.612   9.491  0.0000  0.0000  0.0000
 8832OM     OM1 8832   7.287   2.555   0.124  0.0000  0.0000  0.0000
 8833OM     OM1 8833   7.474   2.733   0.107  0.0000  0.0000  0.0000
 8834OM     OM1 8834   7.239   2.795   0.014  0.0000  0.0000  0.0000
 8835OM     OM1 8835   2.957   0.559   8.848  0.0000  0.0000  0.0000
 8836OM     OM1 8836   2.295   6.720   9.273  0.0000  0.0000  0.0000
 8837OM     OM1 8837   8.228   0.286   9.516  0.0000  0.0000  0.0000
 8838OM     OM1 8838   8.582   9.257   0.080  0.0000  0.0000  0.0000
 8839OM     OM1 8839   8.382   9.137   9.584  0.0000  0.0000  0.0000
 8840OM     OM1 8840   8.366   9.385   0.081  0.0000  0.0000  0.0000
 8841OM     OM1 8841   4.315   6.831   1.270  0.0000  0.0000  0.0000
 8842OM     OM1 8842   4.369   6.956   1.039  0.0000  0.0000  0.0000
 8843OM     OM1 8843   5.718   6.612   8.573  0.0000  0.0000  0.0000
 8844OM     OM1 8844   5.495   6.456   8.582  0.0000  0.0000  0.0000
 8845OM     OM1 8845   4.115   6.487   9.286  0.0000  0.0000  0.0000
 8846OM     OM1 8846   3.992   6.553   9.496  0.0000  0.0000  0.0000
 8847OM     OM1 8847   4.418   9.278   0.657  0.0000  0.0000  0.0000
 8848OM     OM1 8848   4.409   0.096   0.729  0.0000  0.0000  0.0000
 8849OM     OM1 8849   9.043   2.242   0.357  0.0000  0.0000  0.0000
 8850OM     OM1 8850   9.120   5.706   0.162  0.0000  0.0000  0.0000
 8851OM     OM1 8851   0.831   4.171   8.316  0.0000  0.0000  0.0000
 8852OM     OM1 8852   3.729   9.066   8.892  0.0000  0.0000  0.0000
 8853OM     OM1 8853   3.754   9.078   9.147  0.0000  0.0000  0.0000
 8854OM     OM1 8854   3.605   8.899   9.053  0.0000  0.0000  0.0000
 8855OM     OM1 8855   3.885   2.643   9.302  0.0000  0.0000  0.0000
 8856OM     OM1 8856   3.635   2.899   9.203  0.0000  0.0000  0.0000
 8857OM     OM1 8857   3.732   3.110   9.321  0.0000  0.0000  0.0000
 8858OM     OM1 8858   7.124   4.400   0.241  0.0000  0.0000  0.0000
 8859OM     OM1 8859   7.332   4.316   0.115  0.0000  0.0000  0.0000
 8860OM     OM1 8860   7.212   4.539   0.043  0.0000  0.0000  0.0000
 8861OM     OM1 8861   7.854   5.359   0.755  0.0000  0.0000  0.0000
 8862OM     OM1 8862   7.852   5.159   0.587  0.0000  0.0000  0.0000
 8863OM     OM1 8863   8.063   5.312   0.579  0.0000  0.0000  0.0000
 8864OM     OM1 8864   0.818   1.809   8.508  0.0000  0.0000  0.0000
 8865OM     OM1 8865   0.783   2.044   8.367  0.0000  0.0000  0.0000
 8866OM     OM1 8866   6.337   1.434   8.449  0.0000  0.0000  0.0000
 8867OM     OM1 8867   6.123   1.316   8.381  0.0000  0.0000  0.0000
 8868OM     OM1 8868   5.868   2.132   0.849  0.0000  0.0000  0.0000
 8869OM     OM1 8869   3.172   9.488   1.259  0.0000  0.0000  0.0000
 8870OM     OM1 8870   0.787   6.732   0.587  0.0000  0.0000  0.0000
 8871OM     OM1 8871   0.639   6.779   0.370  0.0000  0.0000  0.0000
 8872OM     OM1 8872   8.541   5.923   9.505  0.0000  0.0000  0.0000
 8873OM     OM1 8873   9.202   7.931   8.508  0.0000  0.0000  0.0000
 8874OM     OM1 8874   9.097   8.131   8.385  0.0000  0.0000  0.0000
 8875OM     OM1 8875   8.961   7.908   8.423  0.0000  0.0000  0.0000
 8876OM     OM1 8876   6.343   4.666   1.225  0.0000  0.0000  0.0000
 8877OM     OM1 8877   4.345   2.673   1.131  0.0000  0.0000  0.0000
 8878OM     OM1 8878   3.823   8.529   8.349  0.0000  0.0000  0.0000
 8879OM     OM1 8879   3.848   8.287   8.273  0.0000  0.0000  0.0000
 8880OM     OM1 8880   6.938   1.753   9.208  0.0000  0.0000  0.0000
 8881OM     OM1 8881   8.591   0.704   8.796  0.0000  0.0000  0.0000
 8882OM     OM1 8882   8.567   0.715   9.052  0.0000  0.0000  0.0000
 8883OM     OM1 8883   4.926   8.431   0.844  0.0000  0.0000  0.0000
 8884OM     OM1 8884   4.912   4.225   9.366  0.0000  0.0000  0.0000
 8885OM     OM1 8885   5.155   4.238   9.473  0.0000  0.0000  0.0000
 8886OM     OM1 8886   3.734   5.285   0.288  0.0000  0.0000  0.0000
 8887OM     OM1 8887   3.571   5.170   0.457  0.0000  0.0000  0.0000
 8888OM     OM1 8888   3.284   8.777   0.548  0.0000  0.0000  0.0000
 8889OM     OM1 8889   3.362   8.902   0.340  0.0000  0.0000  0.0000
 8890OM     OM1 8890   3.104   8.868   0.401  0.0000  0.0000  0.0000
 8891OM     OM1 8891   2.157   6.881   8.821  0.0000  0.0000  0.0000
 8892OM     OM1 8892   2.173   6.783   9.053  0.0000  0.0000  0.0000
 8893OM     OM1 8893   5.807   3.793   9.412  0.0000  0.0000  0.0000
 8894OM     OM1 8894   5.582   3.867   0.346  0.0000  0.0000  0.0000
 8895OM     OM1 8895   4.785   4.958   0.713  0.0000  0.0000  0.0000
 8896OM     OM1 8896   7.919   7.569   8.952  0.0000  0.0000  0.0000
 8897OM     OM1 8897   8.054   7.653   8.736  0.0000  0.0000  0.0000
 8898OM     OM1 8898   7.979   7.415   8.760  0.0000  0.0000  0.0000
 8899OM     OM1 8899   9.597   6.069   8.875  0.0000  0.0000  0.0000
 8900OM     OM1 8900   4.918   4.361   0.653  0.0000  0.0000  0.0000
 8901OM     OM1 8901   4.930   4.132   0.762  0.0000  0.0000  0.0000
 8902OM     OM1 8902   0.033   3.251   8.905  0.0000  0.0000  0.0000
 8903OM     OM1 8903   9.387   3.216   8.959  0.0000  0.0000  0.0000
 8904OM     OM1 8904   7.876   2.479   0.216  0.0000  0.0000  0.0000
 8905OM     OM1 8905   8.065   2.527   0.039  0.0000  0.0000  0.0000
 8906OM     OM1 8906   8.111   2.405   0.265  0.0000  0.0000  0.0000
 8907OM     OM1 8907   0.268   9.172   8.622  0.0000  0.0000  0.0000
 8908OM     OM1 8908   4.049   1.346   1.245  0.0000  0.0000  0.0000
 8909OM     OM1 8909   3.883   2.694   8.829  0.0000  0.0000  0.0000
 8910OM     OM1 8910   3.753   2.868   8.972  0.0000  0.0000  0.0000
 8911OM     OM1 8911   8.950   1.474   8.849  0.0000  0.0000  0.0000
 8912OM     OM1 8912   8.978   1.720   8.911  0.0000  0.0000  0.0000
 8913OM     OM1 8913   3.132   4.184   1.074  0.0000  0.0000  0.0000
 8914OM     OM1 8914   3.588   4.274   8.982  0.0000  0.0000  0.0000
 8915OM     OM1 8915   3.780   4.427   8.888  0.0000  0.0000  0.0000
 8916OM     OM1 8916   2.037   1.301   8.299  0.0000  0.0000  0.0000
 8917OM     OM1 8917   1.905   4.229   0.218  0.0000  0.0000  0.0000
 8918OM     OM1 8918   2.200   1.908   0.042  0.0000  0.0000  0.0000
 8919OM     OM1 8919   2.107   2.063   9.464  0.0000  0.0000  0.0000
 8920OM     OM1 8920   2.178   1.819   9.398  0.0000  0.0000  0.0000
 8921OM     OM1 8921   7.638   9.434   9.349  0.0000  0.0000  0.0000
 8922OM     OM1 8922   7.679   9.206   9.227  0.0000  0.0000  0.0000
 8923OM     OM1 8923   3.393   6.662   1.348  0.0000  0.0000  0.0000
 8924OM     OM1 8924   7.863   8.231   9.045  0.0000  0.0000  0.0000
 8925OM     OM1 8925   7.620   8.150   9.079  0.0000  0.0000  0.0000
 8926OM     OM1 8926   7.828   7.976   9.105  0.0000  0.0000  0.0000
 8927OM     OM1 8927   4.316   7.682   1.336  0.0000  0.0000  0.0000
 8928OM     OM1 8928   9.179   1.220   8.238  0.0000  0.0000  0.0000
 8929OM     OM1 8929   8.480   8.586   9.307  0.0000  0.0000  0.0000
 8930OM     OM1 8930   8.448   2.775   8.884  0.0000  0.0000  0.0000
 8931OM     OM1 8931   8.637   2.939   8.897  0.0000  0.0000  0.0000
 8932OM     OM1 8932   8.685   2.672   8.902  0.0000  0.0000  0.0000
 8933OM     OM1 8933   8.574   2.797   9.106  0.0000  0.0000  0.0000
 8934OM     OM1 8934   3.401   0.842   9.356  0.0000  0.0000  0.0000
 8935OM     OM1 8935   3.422   0.843   9.097  0.0000  0.0000  0.0000
 8936OM     OM1 8936   5.517   4.467   0.400  0.0000  0.0000  0.0000
 8937OM     OM1 8937   0.720   5.847   1.008  0.0000  0.0000  0.0000
 8938OM     OM1 8938   0.659   5.884   1.263  0.0000  0.0000  0.0000
 8939OM     OM1 8939   8.565   4.548   9.289  0.0000  0.0000  0.0000
 8940OM     OM1 8940   0.537   6.004   0.405  0.0000  0.0000  0.0000
 8941OM     OM1 8941   3.644   4.717   8.747  0.0000  0.0000  0.0000
 8942OM     OM1 8942   2.168   3.011   8.283  0.0000  0.0000  0.0000
 8943OM     OM1 8943   2.902   2.853   9.206  0.0000  0.0000  0.0000
 8944OM     OM1 8944   2.736   2.660   9.162  0.0000  0.0000  0.0000
 8945OM     OM1 8945   2.708   2.905   9.054  0.0000  0.0000  0.0000
 8946OM     OM1 8946   2.893   2.737   8.970  0.0000  0.0000  0.0000
 8947OM     OM1 8947   8.608   4.540   0.739  0.0000  0.0000  0.0000
 8948OM     OM1 8948   8.790   4.514   0.913  0.0000  0.0000  0.0000
 8949OM     OM1 8949   2.472   2.019   0.267  0.0000  0.0000  0.0000
 8950OM     OM1 8950   2.347   2.248   0.264  0.0000  0.0000  0.0000
 8951OM     OM1 8951   2.567   2.211   0.113  0.0000  0.0000  0.0000
 8952OM     OM1 8952   2.591   2.227   0.364  0.0000  0.0000  0.0000
 8953OM     OM1 8953   4.244   6.176   9.293  0.0000  0.0000  0.0000
 8954OM     OM1 8954   1.789   3.686   1.134  0.0000  0.0000  0.0000
 8955OM     OM1 8955   1.590   3.799   1.023  0.0000  0.0000  0.0000
 8956OM     OM1 8956   1.645   3.865   1.269  0.0000  0.0000  0.0000
 8957OM     OM1 8957   9.229   6.309   0.660  0.0000  0.0000  0.0000
 8958OM     OM1 8958   9.385   6.120   0.718  0.0000  0.0000  0.0000
 8959OM     OM1 8959   9.132   6.081   0.771  0.0000  0.0000  0.0000
 8960OM     OM1 8960   9.116   6.601   9.484  0.0000  0.0000  0.0000
 8961OM     OM1 8961   0.924   0.892   1.354  0.0000  0.0000  0.0000
 8962OM     OM1 8962   8.773   5.191   8.318  0.0000  0.0000  0.0000
 8963OM     OM1 8963   6.636   9.345   0.029  0.0000  0.0000  0.0000
 8964OM     OM1 8964   1.363   9.066   9.252  0.0000  0.0000  0.0000
 8965OM     OM1 8965   1.553   9.242   9.198  0.0000  0.0000  0.0000
 8966OM     OM1 8966   1.552   9.109   9.426  0.0000  0.0000  0.0000
 8967OM     OM1 8967   9.273   6.792   9.393  0.0000  0.0000  0.0000
 8968OM     OM1 8968   2.411   5.789   8.692  0.0000  0.0000  0.0000
 8969OM     OM1 8969   2.502   5.957   8.870  0.0000  0.0000  0.0000
 8970OM     OM1 8970   7.663   5.451   0.914  0.0000  0.0000  0.0000
 8971OM     OM1 8971   6.121   4.285   0.761  0.0000  0.0000  0.0000
 8972OM     OM1 8972   6.361   4.296   0.885  0.0000  0.0000  0.0000
 8973OM     OM1 8973   6.244   4.066   0.838  0.0000  0.0000  0.0000
 8974OM     OM1 8974   5.194   5.341   1.200  0.0000  0.0000  0.0000
 8975OM     OM1 8975   4.550   8.502   1.233  0.0000  0.0000  0.0000
 8976OM     OM1 8976   2.808   7.193   9.040  0.0000  0.0000  0.0000
 8977OM     OM1 8977   2.731   7.603   8.776  0.0000  0.0000  0.0000
 8978OM     OM1 8978   2.761   7.448   8.581  0.0000  0.0000  0.0000
 8979OM     OM1 8979   7.186   1.045   1.132  0.0000  0.0000  0.0000
 8980OM     OM1 8980   7.018   1.250   1.143  0.0000  0.0000  0.0000
 8981OM     OM1 8981   7.023   1.096   0.942  0.0000  0.0000  0.0000
 8982OM     OM1 8982   8.170   7.425   9.394  0.0000  0.0000  0.0000
 8983OM     OM1 8983   8.245   7.291   0.006  0.0000  0.0000  0.0000
 8984OM     OM1 8984   0.059   4.757   8.583  0.0000  0.0000  0.0000
 8985OM     OM1 8985   0.227   4.845   8.403  0.0000  0.0000  0.0000
 8986OM     OM1 8986   0.697   8.841   0.409  0.0000  0.0000  0.0000
 8987OM     OM1 8987   6.187   1.951   8.854  0.0000  0.0000  0.0000
 8988OM     OM1 8988   6.213   1.911   9.114  0.0000  0.0000  0.0000
 8989OM     OM1 8989   6.166   2.153   9.014  0.0000  0.0000  0.0000
 8990OM     OM1 8990   1.707   7.936   1.103  0.0000  0.0000  0.0000
 8991OM     OM1 8991   3.583   3.934   0.454  0.0000  0.0000  0.0000
 8992OM     OM1 8992   3.806   3.793   0.413  0.0000  0.0000  0.0000
 8993OM     OM1 8993   6.332   0.520   0.818  0.0000  0.0000  0.0000
 8994OM     OM1 8994   6.105   0.622   0.937  0.0000  0.0000  0.0000
 8995OM     OM1 8995   8.673   0.177   8.907  0.0000  0.0000  0.0000
 8996OM     OM1 8996   2.478   8.185   0.442  0.0000  0.0000  0.0000
 8997OM     OM1 8997   2.606   8.123   0.658  0.0000  0.0000  0.0000
 8998OM     OM1 8998   6.347   2.434   9.372  0.0000  0.0000  0.0000
 8999OM     OM1 8999   0.679   7.737   0.416  0.0000  0.0000  0.0000
 9000OM     OM1 9000   0.809   7.864   0.594  0.0000  0.0000  0.0000
 9001OM     OM1 9001   3.171   8.505   8.314  0.0000  0.0000  0.0000
 9002OM     OM1 9002   0.975   9.445   8.639  0.0000  0.0000  0.0000
 9003OM     OM1 9003   0.796   9.601   8.538  0.0000  0.0000  0.0000
 9004OM     OM1 9004   0.803   9.352   8.460  0.0000  0.0000  0.0000
 9005OM     OM1 9005   3.487   7.630   1.231  0.0000  0.0000  0.0000
 9006OM     OM1 9006   7.641   8.773   0.381  0.0000  0.0000  0.0000
 9007OM     OM1 9007   7.668   8.755   0.134  0.0000  0.0000  0.0000
 9008OM     OM1 9008   7.682   8.533   0.266  0.0000  0.0000  0.0000
 9009OM     OM1 9009   2.407   9.272   8.603  0.0000  0.0000  0.0000
 9010OM     OM1 9010   1.047   8.028   8.352  0.0000  0.0000  0.0000
 9011OM     OM1 9011   5.180   9.437   1.285  0.0000  0.0000  0.0000
 9012OM     OM1 9012   5.144   0.086   1.184  0.0000  0.0000  0.0000
 9013OM     OM1 9013   2.986   5.541   9.019  0.0000  0.0000  0.0000
 9014OM     OM1 9014   2.972   5.283   8.951  0.0000  0.0000  0.0000
 9015OM     OM1 9015   5.848   6.974   0.726  0.0000  0.0000  0.0000
 9016OM     OM1 9016   5.744   7.205   0.675  0.0000  0.0000  0.0000
 9017OM     OM1 9017   5.777   6.751   0.609  0.0000  0.0000  0.0000
 9018OM     OM1 9018   7.898   4.424   0.840  0.0000  0.0000  0.0000
 9019OM     OM1 9019   4.311   3.059   9.367  0.0000  0.0000  0.0000
 9020OM     OM1 9020   3.227   8.044   0.856  0.0000  0.0000  0.0000
 9021OM     OM1 9021   3.096   8.076   1.092  0.0000  0.0000  0.0000
 9022OM     OM1 9022   3.606   0.916   0.112  0.0000  0.0000  0.0000
 9023OM     OM1 9023   3.580   0.770   0.327  0.0000  0.0000  0.0000
 9024OM     OM1 9024   3.856   4.291   8.478  0.0000  0.0000  0.0000
 9025OM     OM1 9025   4.035   4.395   8.316  0.0000  0.0000  0.0000
 9026OM     OM1 9026   4.775   1.667   0.799  0.0000  0.0000  0.0000
 9027OM     OM1 9027   4.687   1.790   0.589  0.0000  0.0000  0.0000
 9028OM     OM1 9028   4.617   1.880   0.826  0.0000  0.0000  0.0000
 9029OM     OM1 9029   3.786   4.737   8.523  0.0000  0.0000  0.0000
 9030OM     OM1 9030   3.878   4.601   8.729  0.0000  0.0000  0.0000
 9031OM     OM1 9031   7.651   0.521   1.142  0.0000  0.0000  0.0000
 9032OM     OM1 9032   7.847   0.435   1.287  0.0000  0.0000  0.0000
 9033OM     OM1 9033   7.892   0.597   1.087  0.0000  0.0000  0.0000
 9034OM     OM1 9034   0.079   1.651   8.588  0.0000  0.0000  0.0000
 9035OM     OM1 9035   1.649   8.824   8.400  0.0000  0.0000  0.0000
 9036OM     OM1 9036   6.045   0.018   0.045  0.0000  0.0000  0.0000
 9037OM     OM1 9037   6.250   0.132   0.140  0.0000  0.0000  0.0000
 9038OM     OM1 9038   0.593   5.454   0.240  0.0000  0.0000  0.0000
 9039OM     OM1 9039   0.657   5.592   0.025  0.0000  0.0000  0.0000
 9040OM     OM1 9040   1.841   6.863   9.169  0.0000  0.0000  0.0000
 9041OM     OM1 9041   1.842   7.009   9.588  0.0000  0.0000  0.0000
 9042OM     OM1 9042   1.856   6.800   9.426  0.0000  0.0000  0.0000
 9043OM     OM1 9043   2.068   6.838   9.282  0.0000  0.0000  0.0000
 9044OM     OM1 9044   3.782   9.116   0.565  0.0000  0.0000  0.0000
 9045OM     OM1 9045   4.318   2.183   9.455  0.0000  0.0000  0.0000
 9046OM     OM1 9046   2.306   6.266   0.844  0.0000  0.0000  0.0000
 9047OM     OM1 9047   2.410   6.150   1.048  0.0000  0.0000  0.0000
 9048OM     OM1 9048   9.182   8.297   1.302  0.0000  0.0000  0.0000
 9049OM     OM1 9049   5.913   5.997   9.118  0.0000  0.0000  0.0000
 9050OM     OM1 9050   5.889   6.183   9.303  0.0000  0.0000  0.0000
 9051OM     OM1 9051   5.733   5.318   8.634  0.0000  0.0000  0.0000
 9052OM     OM1 9052   5.996   5.324   8.701  0.0000  0.0000  0.0000
 9053OM     OM1 9053   5.183   3.759   8.578  0.0000  0.0000  0.0000
 9054OM     OM1 9054   7.665   7.765   1.291  0.0000  0.0000  0.0000
 9055OM     OM1 9055   7.843   7.640   1.164  0.0000  0.0000  0.0000
 9056OM     OM1 9056   8.774   5.646   8.554  0.0000  0.0000  0.0000
 9057OM     OM1 9057   7.947   6.566   0.224  0.0000  0.0000  0.0000
 9058OM     OM1 9058   8.202   6.626   0.153  0.0000  0.0000  0.0000
 9059OM     OM1 9059   8.104   6.652   0.404  0.0000  0.0000  0.0000
 9060OM     OM1 9060   3.188   4.148   0.820  0.0000  0.0000  0.0000
 9061OM     OM1 9061   3.513   3.852   1.090  0.0000  0.0000  0.0000
 9062OM     OM1 9062   2.597   4.434   0.020  0.0000  0.0000  0.0000
 9063OM     OM1 9063   2.465   4.283   0.170  0.0000  0.0000  0.0000
 9064OM     OM1 9064   2.458   4.552   0.201  0.0000  0.0000  0.0000
 9065OM     OM1 9065   0.806   3.676   9.546  0.0000  0.0000  0.0000
 9066OM     OM1 9066   2.213   7.332   0.496  0.0000  0.0000  0.0000
 9067OM     OM1 9067   3.761   3.448   8.314  0.0000  0.0000  0.0000
 9068OM     OM1 9068   5.254   2.714   0.016  0.0000  0.0000  0.0000
 9069OM     OM1 9069   5.235   2.645   0.243  0.0000  0.0000  0.0000
 9070OM     OM1 9070   3.381   7.728   0.002  0.0000  0.0000  0.0000
 9071OM     OM1 9071   3.550   7.902   9.534  0.0000  0.0000  0.0000
 9072OM     OM1 9072   6.015   6.377   0.979  0.0000  0.0000  0.0000
 9073OM     OM1 9073   6.218   6.329   0.605  0.0000  0.0000  0.0000
 9074OM     OM1 9074   3.043   5.838   0.465  0.0000  0.0000  0.0000
 9075OM     OM1 9075   3.283   5.929   0.523  0.0000  0.0000  0.0000
 9076OM     OM1 9076   0.646   2.657   0.651  0.0000  0.0000  0.0000
 9077OM     OM1 9077   0.581   2.874   0.787  0.0000  0.0000  0.0000
 9078OM     OM1 9078   0.756   2.879   0.587  0.0000  0.0000  0.0000
 9079OM     OM1 9079   0.501   2.860   0.547  0.0000  0.0000  0.0000
 9080OM     OM1 9080   3.221   9.049   9.115  0.0000  0.0000  0.0000
 9081OM     OM1 9081   3.205   8.958   8.875  0.0000  0.0000  0.0000
 9082OM     OM1 9082   3.316   9.349   8.801  0.0000  0.0000  0.0000
 9083OM     OM1 9083   3.141   9.208   8.923  0.0000  0.0000  0.0000
 9084OM     OM1 9084   6.760   2.340   0.572  0.0000  0.0000  0.0000
 9085OM     OM1 9085   5.971   1.898   0.786  0.0000  0.0000  0.0000
 9086OM     OM1 9086   0.855   1.099   8.754  0.0000  0.0000  0.0000
 9087OM     OM1 9087   6.867   5.503   0.661  0.0000  0.0000  0.0000
 9088OM     OM1 9088   4.402   1.419   1.200  0.0000  0.0000  0.0000
 9089OM     OM1 9089   4.388   1.681   1.208  0.0000  0.0000  0.0000
 9090OM     OM1 9090   4.577   1.548   1.328  0.0000  0.0000  0.0000
 9091OM     OM1 9091   8.715   7.848   8.489  0.0000  0.0000  0.0000
 9092OM     OM1 9092   8.517   7.844   8.329  0.0000  0.0000  0.0000
 9093OM     OM1 9093   8.561   8.055   8.513  0.0000  0.0000  0.0000
 9094OM     OM1 9094   8.687   8.287   8.513  0.0000  0.0000  0.0000
 9095OM     OM1 9095   8.740   8.116   8.695  0.0000  0.0000  0.0000
 9096OM     OM1 9096   3.399   8.796   8.938  0.0000  0.0000  0.0000
 9097OM     OM1 9097   3.216   8.724   8.772  0.0000  0.0000  0.0000
 9098OM     OM1 9098   4.866   6.036   8.398  0.0000  0.0000  0.0000
 9099OM     OM1 9099   8.970   8.781   0.162  0.0000  0.0000  0.0000
 9100OM     OM1 9100   8.964   8.711   9.521  0.0000  0.0000  0.0000
 9101OM     OM1 9101   7.065   7.165   9.417  0.0000  0.0000  0.0000
 9102OM     OM1 9102   6.968   7.077   9.194  0.0000  0.0000  0.0000
 9103OM     OM1 9103   4.521   0.147   1.223  0.0000  0.0000  0.0000
 9104OM     OM1 9104   4.669   0.368   1.240  0.0000  0.0000  0.0000
 9105OM     OM1 9105   2.830   8.013   9.582  0.0000  0.0000  0.0000
 9106OM     OM1 9106   3.059   8.131   9.479  0.0000  0.0000  0.0000
 9107OM     OM1 9107   3.035   7.886   9.581  0.0000  0.0000  0.0000
 9108OM     OM1 9108   2.925   9.537   0.027  0.0000  0.0000  0.0000
 9109OM     OM1 9109   3.103   4.031   0.603  0.0000  0.0000  0.0000
 9110OM     OM1 9110   5.234   8.340   8.487  0.0000  0.0000  0.0000
 9111OM     OM1 9111   5.472   8.140   8.371  0.0000  0.0000  0.0000
 9112OM     OM1 9112   5.147   8.136   8.627  0.0000  0.0000  0.0000
 9113OM     OM1 9113   1.556   8.225   0.877  0.0000  0.0000  0.0000
 9114OM     OM1 9114   0.567   7.721   0.190  0.0000  0.0000  0.0000
 9115OM     OM1 9115   0.817   7.693   0.108  0.0000  0.0000  0.0000
 9116OM     OM1 9116   0.626   7.666   9.546  0.0000  0.0000  0.0000
 9117OM     OM1 9117   7.204   3.872   0.854  0.0000  0.0000  0.0000
 9118OM     OM1 9118   7.160   4.026   1.048  0.0000  0.0000  0.0000
 9119OM     OM1 9119   7.071   3.822   1.182  0.0000  0.0000  0.0000
 9120OM     OM1 9120   7.145   4.124   0.795  0.0000  0.0000  0.0000
 9121OM     OM1 9121   7.134   2.545   9.394  0.0000  0.0000  0.0000
 9122OM     OM1 9122   6.959   2.486   9.209  0.0000  0.0000  0.0000
 9123OM     OM1 9123   7.152   0.395   8.798  0.0000  0.0000  0.0000
 9124OM     OM1 9124   7.288   0.238   8.653  0.0000  0.0000  0.0000
 9125OM     OM1 9125   7.068   0.148   8.785  0.0000  0.0000  0.0000
 9126OM     OM1 9126   7.126   9.604   8.990  0.0000  0.0000  0.0000
 9127OM     OM1 9127   3.177   7.761   0.147  0.0000  0.0000  0.0000
 9128OM     OM1 9128   2.936   7.682   0.143  0.0000  0.0000  0.0000
 9129OM     OM1 9129   6.408   9.203   9.097  0.0000  0.0000  0.0000
 9130OM     OM1 9130   2.779   4.572   9.081  0.0000  0.0000  0.0000
 9131OM     OM1 9131   2.847   4.331   9.033  0.0000  0.0000  0.0000
 9132OM     OM1 9132   3.043   4.509   9.067  0.0000  0.0000  0.0000
 9133OM     OM1 9133   2.904   4.425   9.268  0.0000  0.0000  0.0000
 9134OM     OM1 9134   0.833   0.234   9.578  0.0000  0.0000  0.0000
 9135OM     OM1 9135   6.186   4.587   0.240  0.0000  0.0000  0.0000
 9136OM     OM1 9136   6.170   4.374   0.390  0.0000  0.0000  0.0000
 9137OM     OM1 9137   3.550   2.718   9.027  0.0000  0.0000  0.0000
 9138OM     OM1 9138   3.471   2.484   8.922  0.0000  0.0000  0.0000
 9139OM     OM1 9139   4.077   0.730   8.333  0.0000  0.0000  0.0000
 9140OM     OM1 9140   4.141   0.979   8.320  0.0000  0.0000  0.0000
 9141OM     OM1 9141   2.279   1.338   0.117  0.0000  0.0000  0.0000
 9142OM     OM1 9142   4.561   2.967   9.362  0.0000  0.0000  0.0000
 9143OM     OM1 9143   7.305   4.944   1.200  0.0000  0.0000  0.0000
 9144OM     OM1 9144   7.244   4.700   1.120  0.0000  0.0000  0.0000
 9145OM     OM1 9145   8.578   8.782   0.653  0.0000  0.0000  0.0000
 9146OM     OM1 9146   9.197   8.828   9.561  0.0000  0.0000  0.0000
 9147OM     OM1 9147   9.182   9.076   0.048  0.0000  0.0000  0.0000
 9148OM     OM1 9148   9.328   9.017   9.447  0.0000  0.0000  0.0000
 9149OM     OM1 9149   2.208   9.108   9.399  0.0000  0.0000  0.0000
 9150OM     OM1 9150   2.388   9.258   9.291  0.0000  0.0000  0.0000
 9151OM     OM1 9151   2.278   9.067   9.151  0.0000  0.0000  0.0000
 9152OM     OM1 9152   3.659   7.060   0.268  0.0000  0.0000  0.0000
 9153OM     OM1 9153   3.653   7.148   0.509  0.0000  0.0000  0.0000
 9154OM     OM1 9154   3.434   7.157   0.384  0.0000  0.0000  0.0000
 9155OM     OM1 9155   6.755   7.565   8.901  0.0000  0.0000  0.0000
 9156OM     OM1 9156   7.002   8.314   0.239  0.0000  0.0000  0.0000
 9157OM     OM1 9157   7.264   8.332   0.260  0.0000  0.0000  0.0000
 9158OM     OM1 9158   6.713   8.482   0.831  0.0000  0.0000  0.0000
 9159OM     OM1 9159   6.973   8.285   1.044  0.0000  0.0000  0.0000
 9160OM     OM1 9160   3.207   1.510   0.385  0.0000  0.0000  0.0000
 9161OM     OM1 9161   3.261   1.566   0.626  0.0000  0.0000  0.0000
 9162OM     OM1 9162   3.332   1.337   0.528  0.0000  0.0000  0.0000
 9163OM     OM1 9163   0.926   2.341   8.489  0.0000  0.0000  0.0000
 9164OM     OM1 9164   0.746   2.299   8.315  0.0000  0.0000  0.0000
 9165OM     OM1 9165   0.675   2.403   8.548  0.0000  0.0000  0.0000
 9166OM     OM1 9166   0.759   6.793   0.144  0.0000  0.0000  0.0000
 9167OM     OM1 9167   0.500   6.811   0.145  0.0000  0.0000  0.0000
 9168OM     OM1 9168   4.533   8.329   8.373  0.0000  0.0000  0.0000
 9169OM     OM1 9169   4.756   1.775   8.585  0.0000  0.0000  0.0000
 9170OM     OM1 9170   8.516   2.472   0.377  0.0000  0.0000  0.0000
 9171OM     OM1 9171   8.672   2.596   0.203  0.0000  0.0000  0.0000
 9172OM     OM1 9172   3.493   2.822   8.403  0.0000  0.0000  0.0000
 9173OM     OM1 9173   8.585   8.270   0.291  0.0000  0.0000  0.0000
 9174OM     OM1 9174   8.781   7.896   0.219  0.0000  0.0000  0.0000
 9175OM     OM1 9175   8.651   8.064   0.419  0.0000  0.0000  0.0000
 9176OM     OM1 9176   4.573   8.671   0.818  0.0000  0.0000  0.0000
 9177OM     OM1 9177   4.489   8.869   0.684  0.0000  0.0000  0.0000
 9178OM     OM1 9178   1.359   6.646   0.573  0.0000  0.0000  0.0000
 9179OM     OM1 9179   0.958   9.124   8.691  0.0000  0.0000  0.0000
 9180OM     OM1 9180   1.313   8.882   8.419  0.0000  0.0000  0.0000
 9181OM     OM1 9181   1.102   9.267   8.530  0.0000  0.0000  0.0000
 9182OM     OM1 9182   7.045   7.711   0.861  0.0000  0.0000  0.0000
 9183OM     OM1 9183   9.334   6.050   8.425  0.0000  0.0000  0.0000
 9184OM     OM1 9184   9.479   6.032   8.645  0.0000  0.0000  0.0000
 9185OM     OM1 9185   4.190   7.578   9.164  0.0000  0.0000  0.0000
 9186OM     OM1 9186   4.371   8.442   9.418  0.0000  0.0000  0.0000
 9187OM     OM1 9187   7.591   5.296   8.790  0.0000  0.0000  0.0000
 9188OM     OM1 9188   1.393   6.050   0.613  0.0000  0.0000  0.0000
 9189OM     OM1 9189   8.281   5.480   1.349  0.0000  0.0000  0.0000
 9190OM     OM1 9190   8.275   5.241   1.240  0.0000  0.0000  0.0000
 9191OM     OM1 9191   8.477   5.320   1.384  0.0000  0.0000  0.0000
 9192OM     OM1 9192   2.826   1.129   8.643  0.0000  0.0000  0.0000
 9193OM     OM1 9193   1.994   1.134   1.295  0.0000  0.0000  0.0000
 9194OM     OM1 9194   9.335   5.109   1.367  0.0000  0.0000  0.0000
 9195OM     OM1 9195   7.558   8.149   0.857  0.0000  0.0000  0.0000
 9196OM     OM1 9196   5.512   4.089   0.206  0.0000  0.0000  0.0000
 9197OM     OM1 9197   5.380   4.179   9.602  0.0000  0.0000  0.0000
 9198OM     OM1 9198   3.807   0.301   0.928  0.0000  0.0000  0.0000
 9199OM     OM1 9199   3.917   0.077   0.869  0.0000  0.0000  0.0000
 9200OM     OM1 9200   4.042   0.310   0.806  0.0000  0.0000  0.0000
 9201OM     OM1 9201   0.817   6.940   1.025  0.0000  0.0000  0.0000
 9202OM     OM1 9202   1.044   6.983   1.144  0.0000  0.0000  0.0000
 9203OM     OM1 9203   6.924   3.526   9.536  0.0000  0.0000  0.0000
 9204OM     OM1 9204   6.881   3.327   0.108  0.0000  0.0000  0.0000
 9205OM     OM1 9205   2.933   3.956   8.733  0.0000  0.0000  0.0000
 9206OM     OM1 9206   2.816   4.093   8.920  0.0000  0.0000  0.0000
 9207OM     OM1 9207   3.956   5.012   9.383  0.0000  0.0000  0.0000
 9208OM     OM1 9208   3.861   4.786   9.306  0.0000  0.0000  0.0000
 9209OM     OM1 9209   4.081   4.886   9.189  0.0000  0.0000  0.0000
 9210OM     OM1 9210   9.037   5.393   1.090  0.0000  0.0000  0.0000
 9211OM     OM1 9211   9.036   5.304   0.852  0.0000  0.0000  0.0000
 9212OM     OM1 9212   8.829   5.260   1.016  0.0000  0.0000  0.0000
 9213OM     OM1 9213   2.002   5.249   9.300  0.0000  0.0000  0.0000
 9214OM     OM1 9214   9.313   7.357   9.066  0.0000  0.0000  0.0000
 9215OM     OM1 9215   9.187   4.431   0.953  0.0000  0.0000  0.0000
 9216OM     OM1 9216   8.856   4.367   1.112  0.0000  0.0000  0.0000
 9217OM     OM1 9217   2.804   4.966   0.917  0.0000  0.0000  0.0000
 9218OM     OM1 9218   2.662   5.000   1.132  0.0000  0.0000  0.0000
 9219OM     OM1 9219   9.350   3.259   0.903  0.0000  0.0000  0.0000
 9220OM     OM1 9220   3.649   8.571   0.224  0.0000  0.0000  0.0000
 9221OM     OM1 9221   3.599   8.823   0.278  0.0000  0.0000  0.0000
 9222OM     OM1 9222   4.155   6.472   0.718  0.0000  0.0000  0.0000
 9223OM     OM1 9223   7.730   1.806   0.479  0.0000  0.0000  0.0000
 9224OM     OM1 9224   7.854   1.825   0.707  0.0000  0.0000  0.0000
 9225OM     OM1 9225   1.437   5.966   0.370  0.0000  0.0000  0.0000
 9226OM     OM1 9226   5.968   0.952   9.231  0.0000  0.0000  0.0000
 9227OM     OM1 9227   5.887   1.053   9.463  0.0000  0.0000  0.0000
 9228OM     OM1 9228   1.179   1.722   0.072  0.0000  0.0000  0.0000
 9229OM     OM1 9229   2.044   7.150   1.206  0.0000  0.0000  0.0000
 9230OM     OM1 9230   1.804   7.248   1.162  0.0000  0.0000  0.0000
 9231OM     OM1 9231   1.900   7.068   1.010  0.0000  0.0000  0.0000
 9232OM     OM1 9232   3.853   4.790   0.639  0.0000  0.0000  0.0000
 9233OM     OM1 9233   3.653   4.929   0.538  0.0000  0.0000  0.0000
 9234OM     OM1 9234   2.253   7.809   0.897  0.0000  0.0000  0.0000
 9235OM     OM1 9235   2.420   7.990   0.786  0.0000  0.0000  0.0000
 9236OM     OM1 9236   1.644   2.083   0.073  0.0000  0.0000  0.0000
 9237OM     OM1 9237   1.887   2.164   9.580  0.0000  0.0000  0.0000
 9238OM     OM1 9238   7.671   0.945   0.781  0.0000  0.0000  0.0000
 9239OM     OM1 9239   7.701   0.943   0.524  0.0000  0.0000  0.0000
 9240OM     OM1 9240   9.389   2.883   8.659  0.0000  0.0000  0.0000
 9241OM     OM1 9241   9.146   2.972   8.620  0.0000  0.0000  0.0000
 9242OM     OM1 9242   9.270   3.011   8.853  0.0000  0.0000  0.0000
 9243OM     OM1 9243   2.639   1.379   9.443  0.0000  0.0000  0.0000
 9244OM     OM1 9244   2.713   1.142   9.367  0.0000  0.0000  0.0000
 9245OM     OM1 9245   5.852   5.208   0.863  0.0000  0.0000  0.0000
 9246OM     OM1 9246   5.838   5.470   0.910  0.0000  0.0000  0.0000
 9247OM     OM1 9247   5.676   5.313   1.022  0.0000  0.0000  0.0000
 9248OM     OM1 9248   9.074   8.610   8.657  0.0000  0.0000  0.0000
 9249OM     OM1 9249   8.851   8.728   8.627  0.0000  0.0000  0.0000
 9250OM     OM1 9250   8.854   8.474   8.593  0.0000  0.0000  0.0000
 9251OM     OM1 9251   5.779   0.727   0.431  0.0000  0.0000  0.0000
 9252OM     OM1 9252   5.980   0.844   0.309  0.0000  0.0000  0.0000
 9253OM     OM1 9253   3.152   6.773   0.368  0.0000  0.0000  0.0000
 9254OM     OM1 9254   7.561   8.166   8.358  0.0000  0.0000  0.0000
 9255OM     OM1 9255   4.907   1.374   9.243  0.0000  0.0000  0.0000
 9256OM     OM1 9256   4.733   1.186   9.256  0.0000  0.0000  0.0000
 9257OM     OM1 9257   8.744   6.770   8.962  0.0000  0.0000  0.0000
 9258OM     OM1 9258   8.622   6.559   8.890  0.0000  0.0000  0.0000
 9259OM     OM1 9259   8.872   3.430   9.297  0.0000  0.0000  0.0000
 9260OM     OM1 9260   9.026   3.608   9.165  0.0000  0.0000  0.0000
 9261OM     OM1 9261   1.093   0.292   8.680  0.0000  0.0000  0.0000
 9262OM     OM1 9262   1.230   0.446   8.829  0.0000  0.0000  0.0000
 9263OM     OM1 9263   2.563   7.525   8.297  0.0000  0.0000  0.0000
 9264OM     OM1 9264   2.811   7.453   8.329  0.0000  0.0000  0.0000
 9265OM     OM1 9265   8.940   8.963   8.608  0.0000  0.0000  0.0000
 9266OM     OM1 9266   5.139   1.643   0.309  0.0000  0.0000  0.0000
 9267OM     OM1 9267   5.274   1.842   0.209  0.0000  0.0000  0.0000
 9268OM     OM1 9268   5.162   1.856   0.457  0.0000  0.0000  0.0000
 9269OM     OM1 9269   5.548   7.333   1.397  0.0000  0.0000  0.0000
 9270OM     OM1 9270   5.360   0.205   1.181  0.0000  0.0000  0.0000
 9271OM     OM1 9271   5.611   0.154   1.187  0.0000  0.0000  0.0000
 9272OM     OM1 9272   3.852   5.290   8.997  0.0000  0.0000  0.0000
 9273OM     OM1 9273   3.621   5.177   9.077  0.0000  0.0000  0.0000
 9274OM     OM1 9274   3.850   5.111   9.174  0.0000  0.0000  0.0000
 9275OM     OM1 9275   5.608   5.850   8.976  0.0000  0.0000  0.0000
 9276OM     OM1 9276   0.515   6.509   1.252  0.0000  0.0000  0.0000
 9277OM     OM1 9277   5.761   3.534   0.716  0.0000  0.0000  0.0000
 9278OM     OM1 9278   5.935   0.076   9.098  0.0000  0.0000  0.0000
 9279OM     OM1 9279   8.329   2.731   9.178  0.0000  0.0000  0.0000
 9280OM     OM1 9280   8.118   2.884   9.200  0.0000  0.0000  0.0000
 9281OM     OM1 9281   8.205   2.794   8.965  0.0000  0.0000  0.0000
 9282OM     OM1 9282   6.883   6.860   9.094  0.0000  0.0000  0.0000
 9283OM     OM1 9283   1.399   1.582   8.522  0.0000  0.0000  0.0000
 9284OM     OM1 9284   1.202   1.312   8.248  0.0000  0.0000  0.0000
 9285OM     OM1 9285   7.293   3.632   0.760  0.0000  0.0000  0.0000
 9286OM     OM1 9286   9.452   0.205   8.382  0.0000  0.0000  0.0000
 9287OM     OM1 9287   3.776   0.866   8.639  0.0000  0.0000  0.0000
 9288OM     OM1 9288   3.969   1.003   8.518  0.0000  0.0000  0.0000
 9289OM     OM1 9289   0.925   3.486   8.599  0.0000  0.0000  0.0000
 9290OM     OM1 9290   1.144   3.494   8.738  0.0000  0.0000  0.0000
 9291OM     OM1 9291   0.936   3.553   8.863  0.0000  0.0000  0.0000
 9292OM     OM1 9292   1.796   5.351   9.165  0.0000  0.0000  0.0000
 9293OM     OM1 9293   1.786   5.104   9.240  0.0000  0.0000  0.0000
 9294OM     OM1 9294   7.326   7.312   8.583  0.0000  0.0000  0.0000
 9295OM     OM1 9295   7.558   9.349   9.052  0.0000  0.0000  0.0000
 9296OM     OM1 9296   7.368   9.529   9.062  0.0000  0.0000  0.0000
 9297OM     OM1 9297   2.025   0.105   8.746  0.0000  0.0000  0.0000
 9298OM     OM1 9298   1.880   9.529   8.622  0.0000  0.0000  0.0000
 9299OM     OM1 9299   1.861   9.548   8.877  0.0000  0.0000  0.0000
 9300OM     OM1 9300   2.547   8.825   9.395  0.0000  0.0000  0.0000
 9301OM     OM1 9301   2.721   8.829   9.602  0.0000  0.0000  0.0000
 9302OM     OM1 9302   5.527   7.337   9.451  0.0000  0.0000  0.0000
 9303OM     OM1 9303   5.603   7.093   9.379  0.0000  0.0000  0.0000
 9304OM     OM1 9304   7.869   2.931   9.193  0.0000  0.0000  0.0000
 9305OM     OM1 9305   6.707   4.056   1.128  0.0000  0.0000  0.0000
 9306OM     OM1 9306   6.638   3.866   0.969  0.0000  0.0000  0.0000
 9307OM     OM1 9307   6.810   3.811   1.155  0.0000  0.0000  0.0000
 9308OM     OM1 9308   3.139   9.088   0.537  0.0000  0.0000  0.0000
 9309OM     OM1 9309   7.814   3.366   0.400  0.0000  0.0000  0.0000
 9310OM     OM1 9310   0.657   5.000   0.331  0.0000  0.0000  0.0000
 9311OM     OM1 9311   0.572   5.246   0.390  0.0000  0.0000  0.0000
 9312OM     OM1 9312   0.999   4.868   8.750  0.0000  0.0000  0.0000
 9313OM     OM1 9313   0.847   4.731   8.576  0.0000  0.0000  0.0000
 9314OM     OM1 9314   0.808   4.982   8.606  0.0000  0.0000  0.0000
 9315OM     OM1 9315   5.002   0.487   0.177  0.0000  0.0000  0.0000
 9316OM     OM1 9316   4.807   0.528   0.348  0.0000  0.0000  0.0000
 9317OM     OM1 9317   1.605   1.020   9.345  0.0000  0.0000  0.0000
 9318OM     OM1 9318   0.808   2.795   9.463  0.0000  0.0000  0.0000
 9319OM     OM1 9319   0.894   2.795   0.104  0.0000  0.0000  0.0000
 9320OM     OM1 9320   0.716   2.965   0.029  0.0000  0.0000  0.0000
 9321OM     OM1 9321   0.262   4.027   0.927  0.0000  0.0000  0.0000
 9322OM     OM1 9322   0.489   3.950   0.817  0.0000  0.0000  0.0000
 9323OM     OM1 9323   9.126   6.100   8.857  0.0000  0.0000  0.0000
 9324OM     OM1 9324   2.161   7.133   8.899  0.0000  0.0000  0.0000
 9325OM     OM1 9325   1.956   6.981   8.960  0.0000  0.0000  0.0000
 9326OM     OM1 9326   6.784   8.357   0.373  0.0000  0.0000  0.0000
 9327OM     OM1 9327   6.719   8.516   0.572  0.0000  0.0000  0.0000
 9328OM     OM1 9328   7.684   1.609   8.794  0.0000  0.0000  0.0000
 9329OM     OM1 9329   7.271   1.600   8.495  0.0000  0.0000  0.0000
 9330OM     OM1 9330   3.047   2.850   0.587  0.0000  0.0000  0.0000
 9331OM     OM1 9331   2.690   0.874   9.387  0.0000  0.0000  0.0000
 9332OM     OM1 9332   2.780   0.987   9.176  0.0000  0.0000  0.0000
 9333OM     OM1 9333   2.523   1.010   9.236  0.0000  0.0000  0.0000
 9334OM     OM1 9334   0.409   4.537   0.285  0.0000  0.0000  0.0000
 9335OM     OM1 9335   0.606   4.587   0.133  0.0000  0.0000  0.0000
 9336OM     OM1 9336   8.289   4.698   8.907  0.0000  0.0000  0.0000
 9337OM     OM1 9337   6.206   2.387   9.124  0.0000  0.0000  0.0000
 9338OM     OM1 9338   6.152   2.358   8.866  0.0000  0.0000  0.0000
 9339OM     OM1 9339   9.174   0.380   0.688  0.0000  0.0000  0.0000
 9340OM     OM1 9340   2.166   2.195   0.701  0.0000  0.0000  0.0000
 9341OM     OM1 9341   1.961   2.322   0.797  0.0000  0.0000  0.0000
 9342OM     OM1 9342   7.273   1.563   9.367  0.0000  0.0000  0.0000
 9343OM     OM1 9343   7.409   1.773   9.448  0.0000  0.0000  0.0000
 9344OM     OM1 9344   0.099   9.536   1.059  0.0000  0.0000  0.0000
 9345OM     OM1 9345   0.023   0.033   0.835  0.0000  0.0000  0.0000
 9346OM     OM1 9346   2.926   4.081   0.124  0.0000  0.0000  0.0000
 9347OM     OM1 9347   7.399   4.455   9.079  0.0000  0.0000  0.0000
 9348OM     OM1 9348   7.456   7.753   1.453  0.0000  0.0000  0.0000
 9349OM     OM1 9349   2.431   8.861   9.153  0.0000  0.0000  0.0000
 9350OM     OM1 9350   3.028   7.073   9.078  0.0000  0.0000  0.0000
 9351OM     OM1 9351   2.531   6.935   9.276  0.0000  0.0000  0.0000
 9352OM     OM1 9352   2.701   7.071   9.407  0.0000  0.0000  0.0000
 9353OM     OM1 9353   1.784   5.773   8.415  0.0000  0.0000  0.0000
 9354OM     OM1 9354   1.784   7.930   9.187  0.0000  0.0000  0.0000
 9355OM     OM1 9355   5.982   4.036   9.050  0.0000  0.0000  0.0000
 9356OM     OM1 9356   6.068   4.234   8.906  0.0000  0.0000  0.0000
 9357OM     OM1 9357   9.583   0.884   0.369  0.0000  0.0000  0.0000
 9358OM     OM1 9358   8.019   1.140   0.680  0.0000  0.0000  0.0000
 9359OM     OM1 9359   8.268   1.313   0.937  0.0000  0.0000  0.0000
 9360OM     OM1 9360   8.141   1.093   0.894  0.0000  0.0000  0.0000
 9361OM     OM1 9361   3.099   8.185   0.485  0.0000  0.0000  0.0000
 9362OM     OM1 9362   9.044   4.221   1.035  0.0000  0.0000  0.0000
 9363OM     OM1 9363   4.629   5.026   9.262  0.0000  0.0000  0.0000
 9364OM     OM1 9364   4.863   4.972   9.171  0.0000  0.0000  0.0000
 9365OM     OM1 9365   3.184   5.127   0.199  0.0000  0.0000  0.0000
 9366OM     OM1 9366   2.968   4.987   0.240  0.0000  0.0000  0.0000
 9367OM     OM1 9367   3.198   4.893   0.308  0.0000  0.0000  0.0000
 9368OM     OM1 9368   3.125   5.929   8.773  0.0000  0.0000  0.0000
 9369OM     OM1 9369   3.135   5.737   8.942  0.0000  0.0000  0.0000
 9370OM     OM1 9370   2.731   0.469   0.576  0.0000  0.0000  0.0000
 9371OM     OM1 9371   6.658   0.828   0.769  0.0000  0.0000  0.0000
 9372OM     OM1 9372   6.656   0.624   0.613  0.0000  0.0000  0.0000
 9373OM     OM1 9373   2.199   5.382   0.674  0.0000  0.0000  0.0000
 9374OM     OM1 9374   2.187   9.510   0.993  0.0000  0.0000  0.0000
 9375OM     OM1 9375   1.747   0.631   8.316  0.0000  0.0000  0.0000
 9376OM     OM1 9376   9.310   3.989   0.910  0.0000  0.0000  0.0000
 9377OM     OM1 9377   9.251   3.865   0.687  0.0000  0.0000  0.0000
 9378OM     OM1 9378   1.567   2.949   0.147  0.0000  0.0000  0.0000
 9379OM     OM1 9379   1.370   2.830   0.281  0.0000  0.0000  0.0000
 9380OM     OM1 9380   1.213   2.087   9.392  0.0000  0.0000  0.0000
 9381OM     OM1 9381   1.384   1.903   9.356  0.0000  0.0000  0.0000
 9382OM     OM1 9382   1.534   5.451   0.216  0.0000  0.0000  0.0000
 9383OM     OM1 9383   1.603   5.340   9.595  0.0000  0.0000  0.0000
 9384OM     OM1 9384   1.863   7.936   8.681  0.0000  0.0000  0.0000
 9385OM     OM1 9385   8.273   2.894   8.731  0.0000  0.0000  0.0000
 9386OM     OM1 9386   8.293   3.116   8.586  0.0000  0.0000  0.0000
 9387OM     OM1 9387   8.429   3.078   8.807  0.0000  0.0000  0.0000
 9388OM     OM1 9388   7.595   5.908   1.123  0.0000  0.0000  0.0000
 9389OM     OM1 9389   4.716   0.696   8.961  0.0000  0.0000  0.0000
 9390OM     OM1 9390   4.823   0.711   9.200  0.0000  0.0000  0.0000
 9391OM     OM1 9391   3.266   7.349   0.322  0.0000  0.0000  0.0000
 9392OM     OM1 9392   1.565   8.647   0.629  0.0000  0.0000  0.0000
 9393OM     OM1 9393   5.750   4.062   8.624  0.0000  0.0000  0.0000
 9394OM     OM1 9394   5.525   4.157   8.530  0.0000  0.0000  0.0000
 9395OM     OM1 9395   5.602   3.945   8.430  0.0000  0.0000  0.0000
 9396OM     OM1 9396   6.740   6.219   9.385  0.0000  0.0000  0.0000
 9397OM     OM1 9397   8.559   2.476   9.016  0.0000  0.0000  0.0000
 9398OM     OM1 9398   8.508   2.336   9.233  0.0000  0.0000  0.0000
 9399OM     OM1 9399   8.318   2.367   9.032  0.0000  0.0000  0.0000
 9400OM     OM1 9400   4.592   0.717   9.326  0.0000  0.0000  0.0000
 9401OM     OM1 9401   7.831   1.915   0.268  0.0000  0.0000  0.0000
 9402OM     OM1 9402   1.032   8.131   1.236  0.0000  0.0000  0.0000
 9403OM     OM1 9403   0.784   8.181   1.188  0.0000  0.0000  0.0000
 9404OM     OM1 9404   7.629   0.013   0.731  0.0000  0.0000  0.0000
 9405OM     OM1 9405   3.864   9.211   1.366  0.0000  0.0000  0.0000
 9406OM     OM1 9406   5.394   0.165   0.248  0.0000  0.0000  0.0000
 9407OM     OM1 9407   5.235   1.873   0.791  0.0000  0.0000  0.0000
 9408OM     OM1 9408   5.246   2.057   0.621  0.0000  0.0000  0.0000
 9409OM     OM1 9409   8.715   1.194   0.603  0.0000  0.0000  0.0000
 9410OM     OM1 9410   7.272   6.227   0.451  0.0000  0.0000  0.0000
 9411OM     OM1 9411   7.316   6.015   0.596  0.0000  0.0000  0.0000
 9412OM     OM1 9412   6.928   7.049   8.931  0.0000  0.0000  0.0000
 9413OM     OM1 9413   6.690   7.127   8.881  0.0000  0.0000  0.0000
 9414OM     OM1 9414   5.270   9.477   8.932  0.0000  0.0000  0.0000
 9415OM     OM1 9415   9.233   8.125   8.676  0.0000  0.0000  0.0000
 9416OM     OM1 9416   9.193   8.391   8.682  0.0000  0.0000  0.0000
 9417OM     OM1 9417   9.152   8.255   8.887  0.0000  0.0000  0.0000
 9418OM     OM1 9418   8.989   8.207   8.701  0.0000  0.0000  0.0000
 9419OM     OM1 9419   6.135   6.670   9.043  0.0000  0.0000  0.0000
 9420OM     OM1 9420   5.082   5.930   9.127  0.0000  0.0000  0.0000
 9421OM     OM1 9421   5.262   5.812   9.291  0.0000  0.0000  0.0000
 9422OM     OM1 9422   5.007   5.755   9.303  0.0000  0.0000  0.0000
 9423OM     OM1 9423   8.807   1.516   8.436  0.0000  0.0000  0.0000
 9424OM     OM1 9424   8.977   1.327   8.368  0.0000  0.0000  0.0000
 9425OM     OM1 9425   9.014   1.465   8.594  0.0000  0.0000  0.0000
 9426OM     OM1 9426   1.956   9.413   0.084  0.0000  0.0000  0.0000
 9427OM     OM1 9427   6.464   5.843   0.371  0.0000  0.0000  0.0000
 9428OM     OM1 9428   2.550   0.655   0.554  0.0000  0.0000  0.0000
 9429OM     OM1 9429   2.519   0.903   0.595  0.0000  0.0000  0.0000
 9430OM     OM1 9430   1.608   9.367   1.234  0.0000  0.0000  0.0000
 9431OM     OM1 9431   6.251   7.303   8.901  0.0000  0.0000  0.0000
 9432OM     OM1 9432   2.635   5.723   9.459  0.0000  0.0000  0.0000
 9433OM     OM1 9433   2.714   5.689   0.094  0.0000  0.0000  0.0000
 9434OM     OM1 9434   2.171   3.231   0.010  0.0000  0.0000  0.0000
 9435OM     OM1 9435   8.538   6.768   9.130  0.0000  0.0000  0.0000
 9436OM     OM1 9436   8.304   6.660   9.212  0.0000  0.0000  0.0000
 9437OM     OM1 9437   6.108   0.140   0.359  0.0000  0.0000  0.0000
 9438OM     OM1 9438   9.440   4.777   0.119  0.0000  0.0000  0.0000
 9439OM     OM1 9439   9.538   5.002   0.196  0.0000  0.0000  0.0000
 9440OM     OM1 9440   0.554   6.608   0.004  0.0000  0.0000  0.0000
 9441OM     OM1 9441   8.920   8.326   8.392  0.0000  0.0000  0.0000
 9442OM     OM1 9442   3.958   5.430   0.271  0.0000  0.0000  0.0000
 9443OM     OM1 9443   3.844   5.365   0.501  0.0000  0.0000  0.0000
 9444OM     OM1 9444   8.899   1.230   1.101  0.0000  0.0000  0.0000
 9445OM     OM1 9445   5.715   1.011   0.075  0.0000  0.0000  0.0000
 9446OM     OM1 9446   5.967   0.971   0.090  0.0000  0.0000  0.0000
 9447OM     OM1 9447   5.800   0.820   9.546  0.0000  0.0000  0.0000
 9448OM     OM1 9448   3.225   7.573   8.490  0.0000  0.0000  0.0000
 9449OM     OM1 9449   2.966   7.594   8.499  0.0000  0.0000  0.0000
 9450OM     OM1 9450   3.132   7.759   8.641  0.0000  0.0000  0.0000
 9451OM     OM1 9451   7.629   6.383   9.326  0.0000  0.0000  0.0000
 9452OM     OM1 9452   7.723   6.578   0.098  0.0000  0.0000  0.0000
 9453OM     OM1 9453   3.641   1.249   8.955  0.0000  0.0000  0.0000
 9454OM     OM1 9454   3.753   1.263   9.200  0.0000  0.0000  0.0000
 9455OM     OM1 9455   3.979   0.717   9.363  0.0000  0.0000  0.0000
 9456OM     OM1 9456   4.870   9.134   8.315  0.0000  0.0000  0.0000
 9457OM     OM1 9457   7.133   6.924   9.049  0.0000  0.0000  0.0000
 9458OM     OM1 9458   6.941   1.950   8.324  0.0000  0.0000  0.0000
 9459OM     OM1 9459   6.902   6.490   0.955  0.0000  0.0000  0.0000
 9460OM     OM1 9460   7.110   6.570   1.105  0.0000  0.0000  0.0000
 9461OM     OM1 9461   5.851   3.034   0.173  0.0000  0.0000  0.0000
 9462OM     OM1 9462   5.735   2.804   0.177  0.0000  0.0000  0.0000
 9463OM     OM1 9463   5.887   2.875   0.378  0.0000  0.0000  0.0000
 9464OM     OM1 9464   6.313   4.637   8.362  0.0000  0.0000  0.0000
 9465OM     OM1 9465   2.823   4.784   1.093  0.0000  0.0000  0.0000
 9466OM     OM1 9466   1.474   3.905   0.822  0.0000  0.0000  0.0000
 9467OM     OM1 9467   8.864   7.299   0.778  0.0000  0.0000  0.0000
 9468OM     OM1 9468   8.777   7.191   0.550  0.0000  0.0000  0.0000
 9469OM     OM1 9469   4.479   0.537   0.945  0.0000  0.0000  0.0000
 9470OM     OM1 9470   4.655   0.686   0.834  0.0000  0.0000  0.0000
 9471OM     OM1 9471   4.713   0.554   1.062  0.0000  0.0000  0.0000
 9472OM     OM1 9472   8.820   2.471   8.981  0.0000  0.0000  0.0000
 9473OM     OM1 9473   4.975   5.197   9.107  0.0000  0.0000  0.0000
 9474OM     OM1 9474   4.956   5.133   9.350  0.0000  0.0000  0.0000
 9475OM     OM1 9475   4.732   8.502   8.909  0.0000  0.0000  0.0000
 9476OM     OM1 9476   4.581   8.587   9.104  0.0000  0.0000  0.0000
 9477OM     OM1 9477   4.684   8.351   9.110  0.0000  0.0000  0.0000
 9478OM     OM1 9478   2.875   1.884   1.060  0.0000  0.0000  0.0000
 9479OM     OM1 9479   7.012   1.677   1.074  0.0000  0.0000  0.0000
 9480OM     OM1 9480   6.866   1.575   0.892  0.0000  0.0000  0.0000
 9481OM     OM1 9481   3.695   8.679   1.111  0.0000  0.0000  0.0000
 9482OM     OM1 9482   7.129   2.679   8.640  0.0000  0.0000  0.0000
 9483OM     OM1 9483   3.104   3.425   8.836  0.0000  0.0000  0.0000
 9484OM     OM1 9484   1.674   5.118   9.470  0.0000  0.0000  0.0000
 9485OM     OM1 9485   1.355   5.420   0.017  0.0000  0.0000  0.0000
 9486OM     OM1 9486   5.253   0.057   9.212  0.0000  0.0000  0.0000
 9487OM     OM1 9487   4.968   9.463   9.405  0.0000  0.0000  0.0000
 9488OM     OM1 9488   9.443   6.471   0.663  0.0000  0.0000  0.0000
 9489OM     OM1 9489   9.232   6.521   0.523  0.0000  0.0000  0.0000
 9490OM     OM1 9490   7.698   1.216   0.071  0.0000  0.0000  0.0000
 9491OM     OM1 9491   7.868   1.159   0.243  0.0000  0.0000  0.0000
 9492OM     OM1 9492   5.326   7.226   1.320  0.0000  0.0000  0.0000
 9493OM     OM1 9493   4.185   7.078   0.913  0.0000  0.0000  0.0000
 9494OM     OM1 9494   7.733   6.437   0.324  0.0000  0.0000  0.0000
 9495OM     OM1 9495   0.426   0.542   9.167  0.0000  0.0000  0.0000
 9496OM     OM1 9496   7.996   4.965   9.318  0.0000  0.0000  0.0000
 9497OM     OM1 9497   0.217   6.021   9.358  0.0000  0.0000  0.0000
 9498OM     OM1 9498   0.119   6.257   9.347  0.0000  0.0000  0.0000
 9499OM     OM1 9499   4.094   1.615   1.116  0.0000  0.0000  0.0000
 9500OM     OM1 9500   5.198   4.498   1.262  0.0000  0.0000  0.0000
 9501OM     OM1 9501   4.696   0.932   9.229  0.0000  0.0000  0.0000
 9502OM     OM1 9502   4.509   1.104   9.157  0.0000  0.0000  0.0000
 9503OM     OM1 9503   7.660   7.257   9.124  0.0000  0.0000  0.0000
 9504OM     OM1 9504   8.992   4.729   8.487  0.0000  0.0000  0.0000
 9505OM     OM1 9505   1.342   7.379   1.260  0.0000  0.0000  0.0000
 9506OM     OM1 9506   1.165   7.546   1.166  0.0000  0.0000  0.0000
 9507OM     OM1 9507   0.968   0.241   0.703  0.0000  0.0000  0.0000
 9508OM     OM1 9508   0.882   0.010   0.592  0.0000  0.0000  0.0000
 9509OM     OM1 9509   1.422   4.854   1.018  0.0000  0.0000  0.0000
 9510OM     OM1 9510   4.563   0.121   8.462  0.0000  0.0000  0.0000
 9511OM     OM1 9511   4.872   0.445   8.596  0.0000  0.0000  0.0000
 9512OM     OM1 9512   4.687   0.549   8.744  0.0000  0.0000  0.0000
 9513OM     OM1 9513   1.726   4.686   9.227  0.0000  0.0000  0.0000
 9514OM     OM1 9514   1.577   4.697   9.447  0.0000  0.0000  0.0000
 9515OM     OM1 9515   1.478   4.712   9.198  0.0000  0.0000  0.0000
 9516OM     OM1 9516   1.619   4.911   9.308  0.0000  0.0000  0.0000
 9517OM     OM1 9517   3.942   7.152   1.017  0.0000  0.0000  0.0000
 9518OM     OM1 9518   6.954   2.288   9.041  0.0000  0.0000  0.0000
 9519OM     OM1 9519   0.877   5.010   0.973  0.0000  0.0000  0.0000
 9520OM     OM1 9520   5.101   1.461   8.425  0.0000  0.0000  0.0000
 9521OM     OM1 9521   3.852   1.412   0.711  0.0000  0.0000  0.0000
 9522OM     OM1 9522   8.540   2.881   0.225  0.0000  0.0000  0.0000
 9523OM     OM1 9523   2.785   1.729   9.465  0.0000  0.0000  0.0000
 9524OM     OM1 9524   3.017   1.852   9.435  0.0000  0.0000  0.0000
 9525OM     OM1 9525   8.659   2.803   0.714  0.0000  0.0000  0.0000
 9526OM     OM1 9526   7.091   1.881   0.921  0.0000  0.0000  0.0000
 9527OM     OM1 9527   8.767   6.676   1.007  0.0000  0.0000  0.0000
 9528OM     OM1 9528   8.720   6.554   0.784  0.0000  0.0000  0.0000
 9529OM     OM1 9529   1.464   2.717   0.633  0.0000  0.0000  0.0000
 9530OM     OM1 9530   1.246   2.798   0.504  0.0000  0.0000  0.0000
 9531OM     OM1 9531   1.247   2.706   0.760  0.0000  0.0000  0.0000
 9532OM     OM1 9532   3.119   3.912   0.097  0.0000  0.0000  0.0000
 9533OM     OM1 9533   2.949   3.945   9.511  0.0000  0.0000  0.0000
 9534OM     OM1 9534   2.922   4.183   9.382  0.0000  0.0000  0.0000
 9535OM     OM1 9535   1.880   9.160   0.037  0.0000  0.0000  0.0000
 9536OM     OM1 9536   7.635   8.057   0.128  0.0000  0.0000  0.0000
 9537OM     OM1 9537   7.703   7.861   9.586  0.0000  0.0000  0.0000
 9538OM     OM1 9538   6.373   9.390   8.912  0.0000  0.0000  0.0000
 9539OM     OM1 9539   6.408   0.025   8.836  0.0000  0.0000  0.0000
 9540OM     OM1 9540   0.770   4.842   0.133  0.0000  0.0000  0.0000
 9541OM     OM1 9541   6.549   9.307   1.156  0.0000  0.0000  0.0000
 9542OM     OM1 9542   6.326   9.176   1.181  0.0000  0.0000  0.0000
 9543OM     OM1 9543   6.465   9.152   0.961  0.0000  0.0000  0.0000
 9544OM     OM1 9544   6.348   9.382   1.014  0.0000  0.0000  0.0000
 9545OM     OM1 9545   8.065   1.957   9.295  0.0000  0.0000  0.0000
 9546OM     OM1 9546   1.901   5.813   0.232  0.0000  0.0000  0.0000
 9547OM     OM1 9547   6.795   9.080   8.521  0.0000  0.0000  0.0000
 9548OM     OM1 9548   6.988   8.964   8.390  0.0000  0.0000  0.0000
 9549OM     OM1 9549   1.938   8.944   8.241  0.0000  0.0000  0.0000
 9550OM     OM1 9550   4.793   2.869   0.869  0.0000  0.0000  0.0000
 9551OM     OM1 9551   4.867   2.614   0.899  0.0000  0.0000  0.0000
 9552OM     OM1 9552   0.676   1.337   9.041  0.0000  0.0000  0.0000
 9553OM     OM1 9553   0.792   1.552   8.938  0.0000  0.0000  0.0000
 9554OM     OM1 9554   0.792   1.337   8.801  0.0000  0.0000  0.0000
 9555OM     OM1 9555   5.990   7.162   0.612  0.0000  0.0000  0.0000
 9556OM     OM1 9556   6.558   6.351   8.503  0.0000  0.0000  0.0000
 9557OM     OM1 9557   6.635   6.102   8.511  0.0000  0.0000  0.0000
 9558OM     OM1 9558   7.788   3.801   1.438  0.0000  0.0000  0.0000
 9559OM     OM1 9559   3.427   6.363   9.141  0.0000  0.0000  0.0000
 9560OM     OM1 9560   3.693   6.364   9.189  0.0000  0.0000  0.0000
 9561OM     OM1 9561   8.266   6.908   8.318  0.0000  0.0000  0.0000
 9562OM     OM1 9562   8.262   6.644   8.379  0.0000  0.0000  0.0000
 9563OM     OM1 9563   2.152   7.360   1.308  0.0000  0.0000  0.0000
 9564OM     OM1 9564   3.080   8.502   8.722  0.0000  0.0000  0.0000
 9565OM     OM1 9565   7.221   4.550   0.912  0.0000  0.0000  0.0000
 9566OM     OM1 9566   7.414   4.724   0.936  0.0000  0.0000  0.0000
 9567OM     OM1 9567   2.456   5.660   0.033  0.0000  0.0000  0.0000
 9568OM     OM1 9568   5.999   2.883   8.300  0.0000  0.0000  0.0000
 9569OM     OM1 9569   9.356   5.977   8.874  0.0000  0.0000  0.0000
 9570OM     OM1 9570   9.544   5.820   8.783  0.0000  0.0000  0.0000
 9571OM     OM1 9571   1.851   9.030   0.259  0.0000  0.0000  0.0000
 9572OM     OM1 9572   1.654   4.441   9.240  0.0000  0.0000  0.0000
 9573OM     OM1 9573   3.891   8.676   8.556  0.0000  0.0000  0.0000
 9574OM     OM1 9574   4.125   1.625   8.459  0.0000  0.0000  0.0000
 9575OM     OM1 9575   4.279   1.408   8.503  0.0000  0.0000  0.0000
 9576OM     OM1 9576   2.735   2.837   8.524  0.0000  0.0000  0.0000
 9577OM     OM1 9577   2.786   2.698   8.740  0.0000  0.0000  0.0000
 9578OM     OM1 9578   1.586   4.177   8.456  0.0000  0.0000  0.0000
 9579OM     OM1 9579   4.331   9.292   9.038  0.0000  0.0000  0.0000
 9580OM     OM1 9580   7.867   8.859   0.028  0.0000  0.0000  0.0000
 9581OM     OM1 9581   6.305   3.530   1.191  0.0000  0.0000  0.0000
 9582OM     OM1 9582   6.115   3.611   1.040  0.0000  0.0000  0.0000
 9583OM     OM1 9583   6.111   3.665   1.294  0.0000  0.0000  0.0000
 9584OM     OM1 9584   7.075   3.426   8.797  0.0000  0.0000  0.0000
 9585OM     OM1 9585   7.045   3.632   8.617  0.0000  0.0000  0.0000
 9586OM     OM1 9586   4.151   7.231   0.596  0.0000  0.0000  0.0000
 9587OM     OM1 9587   7.811   7.572   0.916  0.0000  0.0000  0.0000
 9588OM     OM1 9588   0.629   7.999   0.731  0.0000  0.0000  0.0000
 9589OM     OM1 9589   0.880   7.989   0.807  0.0000  0.0000  0.0000
 9590OM     OM1 9590   0.801   8.126   0.590  0.0000  0.0000  0.0000
 9591OM     OM1 9591   6.233   9.541   0.592  0.0000  0.0000  0.0000
 9592OM     OM1 9592   6.179   9.468   0.835  0.0000  0.0000  0.0000
 9593OM     OM1 9593   6.123   3.841   0.916  0.0000  0.0000  0.0000
 9594OM     OM1 9594   6.388   3.864   0.909  0.0000  0.0000  0.0000
 9595OM     OM1 9595   3.829   9.562   0.659  0.0000  0.0000  0.0000
 9596OM     OM1 9596   3.673   0.166   0.624  0.0000  0.0000  0.0000
 9597OM     OM1 9597   3.719   9.502   0.874  0.0000  0.0000  0.0000
 9598OM     OM1 9598   9.064   2.045   8.549  0.0000  0.0000  0.0000
 9599OM     OM1 9599   8.825   2.148   8.603  0.0000  0.0000  0.0000
 9600OM     OM1 9600   7.669   5.063   0.729  0.0000  0.0000  0.0000
 9601OM     OM1 9601   7.782   3.047   8.477  0.0000  0.0000  0.0000
 9602OM     OM1 9602   7.972   3.090   8.309  0.0000  0.0000  0.0000
 9603OM     OM1 9603   9.515   1.492   8.469  0.0000  0.0000  0.0000
 9604OM     OM1 9604   6.340   0.026   9.185  0.0000  0.0000  0.0000
 9605OM     OM1 9605   6.509   9.438   9.128  0.0000  0.0000  0.0000
 9606OM     OM1 9606   9.334   0.439   8.367  0.0000  0.0000  0.0000
 9607OM     OM1 9607   9.539   7.567   0.726  0.0000  0.0000  0.0000
 9608OM     OM1 9608   9.284   7.600   0.668  0.0000  0.0000  0.0000
 9609OM     OM1 9609   5.105   8.036   9.492  0.0000  0.0000  0.0000
 9610OM     OM1 9610   5.208   7.933   9.274  0.0000  0.0000  0.0000
 9611OM     OM1 9611   5.077   8.157   9.270  0.0000  0.0000  0.0000
 9612OM     OM1 9612   4.599   1.366   0.301  0.0000  0.0000  0.0000
 9613OM     OM1 9613   4.646   1.562   0.469  0.0000  0.0000  0.0000
 9614OM     OM1 9614   7.622   3.837   8.623  0.0000  0.0000  0.0000
 9615OM     OM1 9615   7.604   4.093   8.637  0.0000  0.0000  0.0000
 9616OM     OM1 9616   0.452   2.799   8.684  0.0000  0.0000  0.0000
 9617OM     OM1 9617   0.672   2.827   8.806  0.0000  0.0000  0.0000
 9618OM     OM1 9618   9.017   3.081   0.623  0.0000  0.0000  0.0000
 9619OM     OM1 9619   6.437   5.135   9.218  0.0000  0.0000  0.0000
 9620OM     OM1 9620   3.774   4.112   9.056  0.0000  0.0000  0.0000
 9621OM     OM1 9621   6.544   9.067   8.505  0.0000  0.0000  0.0000
 9622OM     OM1 9622   8.075   0.156   8.224  0.0000  0.0000  0.0000
 9623OM     OM1 9623   0.678   8.721   8.557  0.0000  0.0000  0.0000
 9624OM     OM1 9624   0.792   8.493   8.637  0.0000  0.0000  0.0000
 9625OM     OM1 9625   0.942   8.685   8.586  0.0000  0.0000  0.0000
 9626OM     OM1 9626   5.868   5.234   0.362  0.0000  0.0000  0.0000
 9627OM     OM1 9627   6.097   5.207   0.249  0.0000  0.0000  0.0000
 9628OM     OM1 9628   5.998   5.015   0.409  0.0000  0.0000  0.0000
 9629OM     OM1 9629   6.096   5.232   0.507  0.0000  0.0000  0.0000
 9630OM     OM1 9630   8.393   4.508   0.894  0.0000  0.0000  0.0000
 9631OM     OM1 9631   8.447   4.698   1.077  0.0000  0.0000  0.0000
 9632OM     OM1 9632   8.367   6.556   8.832  0.0000  0.0000  0.0000
 9633OM     OM1 9633   8.486   6.327   8.884  0.0000  0.0000  0.0000
 9634OM     OM1 9634   8.216   6.707   8.980  0.0000  0.0000  0.0000
 9635OM     OM1 9635   1.828   3.108   0.889  0.0000  0.0000  0.0000
 9636OM     OM1 9636   1.569   3.111   0.920  0.0000  0.0000  0.0000
 9637OM     OM1 9637   3.653   1.350   9.428  0.0000  0.0000  0.0000
 9638OM     OM1 9638   2.660   7.980   0.882  0.0000  0.0000  0.0000
 9639OM     OM1 9639   2.533   8.199   0.897  0.0000  0.0000  0.0000
 9640OM     OM1 9640   0.138   4.047   8.957  0.0000  0.0000  0.0000
 9641OM     OM1 9641   7.168   7.547   0.305  0.0000  0.0000  0.0000
 9642OM     OM1 9642   4.127   1.202   8.455  0.0000  0.0000  0.0000
 9643OM     OM1 9643   3.931   1.128   8.300  0.0000  0.0000  0.0000
 9644OM     OM1 9644   3.991   5.001   1.326  0.0000  0.0000  0.0000
 9645OM     OM1 9645   3.904   5.246   1.303  0.0000  0.0000  0.0000
 9646OM     OM1 9646   4.928   4.448   8.854  0.0000  0.0000  0.0000
 9647OM     OM1 9647   5.010   4.693   8.820  0.0000  0.0000  0.0000
 9648OM     OM1 9648   8.198   0.858   1.245  0.0000  0.0000  0.0000
 9649OM     OM1 9649   5.154   4.211   0.872  0.0000  0.0000  0.0000
 9650OM     OM1 9650   5.233   4.405   1.020  0.0000  0.0000  0.0000
 9651OM     OM1 9651   5.414   4.239   0.917  0.0000  0.0000  0.0000
 9652OM     OM1 9652   2.969   1.076   1.153  0.0000  0.0000  0.0000
 9653OM     OM1 9653   5.583   0.276   8.335  0.0000  0.0000  0.0000
 9654OM     OM1 9654   8.668   0.455   1.126  0.0000  0.0000  0.0000
 9655OM     OM1 9655   8.142   9.375   0.824  0.0000  0.0000  0.0000
 9656OM     OM1 9656   8.344   9.361   0.974  0.0000  0.0000  0.0000
 9657OM     OM1 9657   7.592   0.434   9.301  0.0000  0.0000  0.0000
 9658OM     OM1 9658   3.998   1.561   0.881  0.0000  0.0000  0.0000
 9659OM     OM1 9659   4.061   1.542   0.636  0.0000  0.0000  0.0000
 9660OM     OM1 9660   3.853   1.676   0.689  0.0000  0.0000  0.0000
 9661OM     OM1 9661   4.256   4.192   8.570  0.0000  0.0000  0.0000
 9662OM     OM1 9662   4.012   4.125   8.588  0.0000  0.0000  0.0000
 9663OM     OM1 9663   4.160   4.025   8.394  0.0000  0.0000  0.0000
 9664OM     OM1 9664   4.872   5.377   8.945  0.0000  0.0000  0.0000
 9665OM     OM1 9665   3.236   1.988   8.560  0.0000  0.0000  0.0000
 9666OM     OM1 9666   3.049   2.101   8.703  0.0000  0.0000  0.0000
 9667OM     OM1 9667   4.251   6.397   8.487  0.0000  0.0000  0.0000
 9668OM     OM1 9668   4.348   6.611   8.365  0.0000  0.0000  0.0000
 9669OM     OM1 9669   4.392   6.571   8.616  0.0000  0.0000  0.0000
 9670OM     OM1 9670   4.515   6.422   8.451  0.0000  0.0000  0.0000
 9671OM     OM1 9671   6.601   4.183   9.131  0.0000  0.0000  0.0000
 9672OM     OM1 9672   8.585   5.355   8.229  0.0000  0.0000  0.0000
 9673OM     OM1 9673   0.618   0.047   1.195  0.0000  0.0000  0.0000
 9674OM     OM1 9674   6.235   4.754   8.583  0.0000  0.0000  0.0000
 9675OM     OM1 9675   7.571   1.899   0.284  0.0000  0.0000  0.0000
 9676OM     OM1 9676   1.296   8.077   9.499  0.0000  0.0000  0.0000
 9677OM     OM1 9677   0.190   3.064   1.014  0.0000  0.0000  0.0000
 9678OM     OM1 9678   0.326   3.046   1.232  0.0000  0.0000  0.0000
 9679OM     OM1 9679   0.130   2.886   1.200  0.0000  0.0000  0.0000
 9680OM     OM1 9680   9.438   4.761   9.234  0.0000  0.0000  0.0000
 9681OM     OM1 9681   9.407   4.694   9.481  0.0000  0.0000  0.0000
 9682OM     OM1 9682   9.195   4.761   9.339  0.0000  0.0000  0.0000
 9683OM     OM1 9683   6.727   1.950   8.477  0.0000  0.0000  0.0000
 9684OM     OM1 9684   2.614   4.204   9.031  0.0000  0.0000  0.0000
 9685OM     OM1 9685   3.781   6.252   8.980  0.0000  0.0000  0.0000
 9686OM     OM1 9686   3.560   6.278   8.814  0.0000  0.0000  0.0000
 9687OM     OM1 9687   9.147   1.000   0.168  0.0000  0.0000  0.0000
 9688OM     OM1 9688   9.109   0.886   0.388  0.0000  0.0000  0.0000
 9689OM     OM1 9689   5.457   6.176   9.258  0.0000  0.0000  0.0000
 9690OM     OM1 9690   9.395   6.580   8.231  0.0000  0.0000  0.0000
 9691OM     OM1 9691   6.764   6.445   8.378  0.0000  0.0000  0.0000
 9692OM     OM1 9692   8.716   0.354   0.351  0.0000  0.0000  0.0000
 9693OM     OM1 9693   1.712   9.393   9.043  0.0000  0.0000  0.0000
 9694OM     OM1 9694   5.376   5.630   0.254  0.0000  0.0000  0.0000
 9695OM     OM1 9695   5.143   5.559   0.348  0.0000  0.0000  0.0000
 9696OM     OM1 9696   2.045   0.299   8.919  0.0000  0.0000  0.0000
 9697OM     OM1 9697   2.153   0.406   9.135  0.0000  0.0000  0.0000
 9698OM     OM1 9698   3.956   4.352   8.715  0.0000  0.0000  0.0000
 9699OM     OM1 9699   5.509   3.761   1.091  0.0000  0.0000  0.0000
 9700OM     OM1 9700   5.505   4.017   1.030  0.0000  0.0000  0.0000
 9701OM     OM1 9701   5.730   3.924   1.102  0.0000  0.0000  0.0000
 9702OM     OM1 9702   9.280   3.614   9.185  0.0000  0.0000  0.0000
 9703OM     OM1 9703   9.458   3.785   9.237  0.0000  0.0000  0.0000
 9704OM     OM1 9704   9.351   3.690   9.440  0.0000  0.0000  0.0000
 9705OM     OM1 9705   4.018   7.156   9.242  0.0000  0.0000  0.0000
 9706OM     OM1 9706   4.260   7.060   9.242  0.0000  0.0000  0.0000
 9707OM     OM1 9707   3.922   7.202   9.479  0.0000  0.0000  0.0000
 9708OM     OM1 9708   3.071   6.653   8.448  0.0000  0.0000  0.0000
 9709OM     OM1 9709   7.013   2.897   0.089  0.0000  0.0000  0.0000
 9710OM     OM1 9710   7.695   6.448   0.574  0.0000  0.0000  0.0000
 9711OM     OM1 9711   7.513   6.328   0.419  0.0000  0.0000  0.0000
 9712OM     OM1 9712   8.495   0.819   8.587  0.0000  0.0000  0.0000
 9713OM     OM1 9713   8.245   0.828   8.509  0.0000  0.0000  0.0000
 9714OM     OM1 9714   1.177   2.290   8.577  0.0000  0.0000  0.0000
 9715OM     OM1 9715   1.036   2.499   8.657  0.0000  0.0000  0.0000
 9716OM     OM1 9716   2.732   0.973   0.461  0.0000  0.0000  0.0000
 9717OM     OM1 9717   2.935   1.095   0.333  0.0000  0.0000  0.0000
 9718OM     OM1 9718   6.301   0.315   0.315  0.0000  0.0000  0.0000
 9719OM     OM1 9719   1.300   5.255   9.187  0.0000  0.0000  0.0000
 9720OM     OM1 9720   1.102   5.417   9.237  0.0000  0.0000  0.0000
 9721OM     OM1 9721   1.060   5.180   9.142  0.0000  0.0000  0.0000
 9722OM     OM1 9722   8.500   8.075   0.628  0.0000  0.0000  0.0000
 9723OM     OM1 9723   8.708   8.129   0.784  0.0000  0.0000  0.0000
 9724OM     OM1 9724   9.271   0.268   8.554  0.0000  0.0000  0.0000
 9725OM     OM1 9725   6.347   0.067   0.387  0.0000  0.0000  0.0000
 9726OM     OM1 9726   8.651   6.998   9.062  0.0000  0.0000  0.0000
 9727OM     OM1 9727   0.263   7.313   1.237  0.0000  0.0000  0.0000
 9728OM     OM1 9728   7.921   6.590   0.586  0.0000  0.0000  0.0000
 9729OM     OM1 9729   3.623   0.295   0.240  0.0000  0.0000  0.0000
 9730OM     OM1 9730   3.515   0.301   0.476  0.0000  0.0000  0.0000
 9731OM     OM1 9731   2.737   1.949   9.087  0.0000  0.0000  0.0000
 9732OM     OM1 9732   5.173   6.764   1.160  0.0000  0.0000  0.0000
 9733OM     OM1 9733   5.235   6.566   1.001  0.0000  0.0000  0.0000
 9734OM     OM1 9734   4.999   6.571   1.100  0.0000  0.0000  0.0000
 9735OM     OM1 9735   5.075   6.742   0.916  0.0000  0.0000  0.0000
 9736OM     OM1 9736   2.457   7.156   9.165  0.0000  0.0000  0.0000
 9737OM     OM1 9737   2.377   7.104   9.404  0.0000  0.0000  0.0000
 9738OM     OM1 9738   2.282   6.968   9.201  0.0000  0.0000  0.0000
 9739OM     OM1 9739   7.100   1.366   0.218  0.0000  0.0000  0.0000
 9740OM     OM1 9740   6.415   8.002   8.463  0.0000  0.0000  0.0000
 9741OM     OM1 9741   4.582   2.531   9.482  0.0000  0.0000  0.0000
 9742OM     OM1 9742   7.541   6.886   8.563  0.0000  0.0000  0.0000
 9743OM     OM1 9743   7.766   6.891   8.431  0.0000  0.0000  0.0000
 9744OM     OM1 9744   5.445   5.339   1.133  0.0000  0.0000  0.0000
 9745OM     OM1 9745   5.274   5.425   0.958  0.0000  0.0000  0.0000
 9746OM     OM1 9746   7.034   8.077   0.904  0.0000  0.0000  0.0000
 9747OM     OM1 9747   6.786   8.105   1.015  0.0000  0.0000  0.0000
 9748OM     OM1 9748   7.465   2.155   0.683  0.0000  0.0000  0.0000
 9749OM     OM1 9749   7.133   8.845   8.559  0.0000  0.0000  0.0000
 9750OM     OM1 9750   7.223   9.025   8.378  0.0000  0.0000  0.0000
 9751OM     OM1 9751   0.063   2.635   1.168  0.0000  0.0000  0.0000
 9752OM     OM1 9752   0.111   2.543   0.929  0.0000  0.0000  0.0000
 9753OM     OM1 9753   9.470   2.559   1.005  0.0000  0.0000  0.0000
 9754OM     OM1 9754   5.153   0.950   9.237  0.0000  0.0000  0.0000
 9755OM     OM1 9755   5.759   5.640   1.092  0.0000  0.0000  0.0000
 9756OM     OM1 9756   5.954   5.464   1.143  0.0000  0.0000  0.0000
 9757OM     OM1 9757   5.028   3.503   0.663  0.0000  0.0000  0.0000
 9758OM     OM1 9758   5.158   3.325   0.812  0.0000  0.0000  0.0000
 9759OM     OM1 9759   6.724   3.176   9.381  0.0000  0.0000  0.0000
 9760OM     OM1 9760   6.572   2.986   9.304  0.0000  0.0000  0.0000
 9761OM     OM1 9761   9.106   1.879   8.744  0.0000  0.0000  0.0000
 9762OM     OM1 9762   9.206   1.845   0.225  0.0000  0.0000  0.0000
 9763OM     OM1 9763   9.024   2.036   0.206  0.0000  0.0000  0.0000
 9764OM     OM1 9764   6.926   6.066   1.164  0.0000  0.0000  0.0000
 9765OM     OM1 9765   6.839   6.175   1.388  0.0000  0.0000  0.0000
 9766OM     OM1 9766   9.080   3.106   8.400  0.0000  0.0000  0.0000
 9767OM     OM1 9767   0.619   5.062   1.026  0.0000  0.0000  0.0000
 9768OM     OM1 9768   0.819   5.131   1.192  0.0000  0.0000  0.0000
 9769OM     OM1 9769   6.122   5.353   0.732  0.0000  0.0000  0.0000
 9770OM     OM1 9770   6.034   5.103   0.716  0.0000  0.0000  0.0000
 9771OM     OM1 9771   1.146   2.375   1.121  0.0000  0.0000  0.0000
 9772OM     OM1 9772   1.036   2.181   1.004  0.0000  0.0000  0.0000
 9773OM     OM1 9773   1.429   7.760   8.633  0.0000  0.0000  0.0000
 9774OM     OM1 9774   5.724   5.871   1.189  0.0000  0.0000  0.0000
 9775OM     OM1 9775   6.976   4.185   0.254  0.0000  0.0000  0.0000
 9776OM     OM1 9776   1.108   2.805   0.276  0.0000  0.0000  0.0000
 9777OM     OM1 9777   1.463   2.708   0.077  0.0000  0.0000  0.0000
 9778OM     OM1 9778   4.937   9.402   8.560  0.0000  0.0000  0.0000
 9779OM     OM1 9779   5.067   9.480   8.775  0.0000  0.0000  0.0000
 9780OM     OM1 9780   6.445   1.063   0.221  0.0000  0.0000  0.0000
 9781OM     OM1 9781   2.326   0.699   8.510  0.0000  0.0000  0.0000
 9782OM     OM1 9782   2.171   0.616   8.707  0.0000  0.0000  0.0000
 9783OM     OM1 9783   0.101   7.002   9.361  0.0000  0.0000  0.0000
 9784OM     OM1 9784   0.120   7.270   9.385  0.0000  0.0000  0.0000
 9785OM     OM1 9785   0.289   7.134   9.244  0.0000  0.0000  0.0000
 9786OM     OM1 9786   3.580   9.053   0.411  0.0000  0.0000  0.0000
 9787OM     OM1 9787   6.361   6.770   0.086  0.0000  0.0000  0.0000
 9788OM     OM1 9788   6.570   6.825   9.564  0.0000  0.0000  0.0000
 9789OM     OM1 9789   2.704   7.256   0.723  0.0000  0.0000  0.0000
 9790OM     OM1 9790   2.856   3.311   0.591  0.0000  0.0000  0.0000
 9791OM     OM1 9791   2.808   3.521   0.747  0.0000  0.0000  0.0000
 9792OM     OM1 9792   2.919   3.277   0.835  0.0000  0.0000  0.0000
 9793OM     OM1 9793   9.001   1.971   8.961  0.0000  0.0000  0.0000
 9794OM     OM1 9794   1.676   1.550   8.937  0.0000  0.0000  0.0000
 9795OM     OM1 9795   1.518   1.647   8.738  0.0000  0.0000  0.0000
 9796OM     OM1 9796   9.482   0.819   1.029  0.0000  0.0000  0.0000
 9797OM     OM1 9797   9.453   1.005   1.224  0.0000  0.0000  0.0000
 9798OM     OM1 9798   7.421   7.286   0.715  0.0000  0.0000  0.0000
 9799OM     OM1 9799   7.478   7.164   0.494  0.0000  0.0000  0.0000
 9800OM     OM1 9800   0.262   1.905   0.165  0.0000  0.0000  0.0000
 9801OM     OM1 9801   0.310   1.654   0.092  0.0000  0.0000  0.0000
 9802OM     OM1 9802   7.060   5.875   1.060  0.0000  0.0000  0.0000
 9803OM     OM1 9803   7.142   6.129   1.034  0.0000  0.0000  0.0000
 9804OM     OM1 9804   2.667   5.407   8.383  0.0000  0.0000  0.0000
 9805OM     OM1 9805   3.842   1.905   9.396  0.0000  0.0000  0.0000
 9806OM     OM1 9806   3.405   1.801   8.628  0.0000  0.0000  0.0000
 9807OM     OM1 9807   5.026   6.989   8.528  0.0000  0.0000  0.0000
 9808OM     OM1 9808   8.934   9.458   8.416  0.0000  0.0000  0.0000
 9809OM     OM1 9809   7.263   7.560   9.398  0.0000  0.0000  0.0000
 9810OM     OM1 9810   7.018   7.562   9.485  0.0000  0.0000  0.0000
 9811OM     OM1 9811   8.001   1.796   0.907  0.0000  0.0000  0.0000
 9812OM     OM1 9812   8.109   1.860   0.679  0.0000  0.0000  0.0000
 9813OM     OM1 9813   2.129   5.782   9.418  0.0000  0.0000  0.0000
 9814OM     OM1 9814   1.931   5.803   9.582  0.0000  0.0000  0.0000
 9815OM     OM1 9815   1.897   5.696   9.349  0.0000  0.0000  0.0000
 9816OM     OM1 9816   0.241   8.162   9.280  0.0000  0.0000  0.0000
 9817OM     OM1 9817   0.344   4.620   0.576  0.0000  0.0000  0.0000
 9818OM     OM1 9818   0.127   4.753   0.540  0.0000  0.0000  0.0000
 9819OM     OM1 9819   2.907   7.370   0.831  0.0000  0.0000  0.0000
 9820OM     OM1 9820   2.934   7.536   0.639  0.0000  0.0000  0.0000
 9821OM     OM1 9821   6.737   1.674   9.045  0.0000  0.0000  0.0000
 9822OM     OM1 9822   8.759   1.057   8.391  0.0000  0.0000  0.0000
 9823OM     OM1 9823   8.940   1.117   8.219  0.0000  0.0000  0.0000
 9824OM     OM1 9824   1.352   8.214   8.550  0.0000  0.0000  0.0000
 9825OM     OM1 9825   7.532   2.125   1.109  0.0000  0.0000  0.0000
 9826OM     OM1 9826   2.208   6.027   9.390  0.0000  0.0000  0.0000
 9827OM     OM1 9827   8.356   2.955   8.393  0.0000  0.0000  0.0000
 9828OM     OM1 9828   8.214   3.176   8.344  0.0000  0.0000  0.0000
 9829OM     OM1 9829   2.133   7.505   9.187  0.0000  0.0000  0.0000
 9830OM     OM1 9830   2.323   7.670   9.274  0.0000  0.0000  0.0000
 9831OM     OM1 9831   1.173   4.166   0.402  0.0000  0.0000  0.0000
 9832OM     OM1 9832   1.060   4.175   0.170  0.0000  0.0000  0.0000
 9833OM     OM1 9833   0.986   4.004   0.351  0.0000  0.0000  0.0000
 9834OM     OM1 9834   6.598   9.270   8.929  0.0000  0.0000  0.0000
 9835OM     OM1 9835   0.955   0.271   8.450  0.0000  0.0000  0.0000
 9836OM     OM1 9836   8.505   2.120   9.382  0.0000  0.0000  0.0000
 9837OM     OM1 9837   8.362   1.893   9.401  0.0000  0.0000  0.0000
 9838OM     OM1 9838   8.245   2.120   9.395  0.0000  0.0000  0.0000
 9839OM     OM1 9839   7.014   1.036   9.349  0.0000  0.0000  0.0000
 9840OM     OM1 9840   7.183   0.841   9.381  0.0000  0.0000  0.0000
 9841OM     OM1 9841   1.575   8.499   0.420  0.0000  0.0000  0.0000
 9842OM     OM1 9842   1.504   8.747   0.400  0.0000  0.0000  0.0000
 9843OM     OM1 9843   2.975   7.334   8.502  0.0000  0.0000  0.0000
 9844OM     OM1 9844   3.011   7.122   8.359  0.0000  0.0000  0.0000
 9845OM     OM1 9845   3.194   1.876   0.021  0.0000  0.0000  0.0000
 9846OM     OM1 9846   3.303   1.802   0.249  0.0000  0.0000  0.0000
 9847OM     OM1 9847   3.233   1.623   0.056  0.0000  0.0000  0.0000
 9848OM     OM1 9848   7.332   4.016   9.311  0.0000  0.0000  0.0000
 9849OM     OM1 9849   0.624   5.475   0.507  0.0000  0.0000  0.0000
 9850OM     OM1 9850   0.860   5.387   0.539  0.0000  0.0000  0.0000
 9851OM     OM1 9851   8.566   9.547   0.933  0.0000  0.0000  0.0000
 9852OM     OM1 9852   5.942   1.698   1.404  0.0000  0.0000  0.0000
 9853OM     OM1 9853   6.160   1.678   1.277  0.0000  0.0000  0.0000
 9854OM     OM1 9854   1.988   3.305   0.191  0.0000  0.0000  0.0000
 9855OM     OM1 9855   3.850   8.929   8.591  0.0000  0.0000  0.0000
 9856OM     OM1 9856   3.760   9.167   8.656  0.0000  0.0000  0.0000
 9857OM     OM1 9857   1.051   7.138   0.135  0.0000  0.0000  0.0000
 9858OM     OM1 9858   2.905   0.010   8.382  0.0000  0.0000  0.0000
 9859OM     OM1 9859   3.052   0.219   8.310  0.0000  0.0000  0.0000
 9860OM     OM1 9860   1.156   8.305   0.554  0.0000  0.0000  0.0000
 9861OM     OM1 9861   0.927   8.327   0.669  0.0000  0.0000  0.0000
 9862OM     OM1 9862   3.194   0.949   9.482  0.0000  0.0000  0.0000
 9863OM     OM1 9863   2.976   0.964   9.344  0.0000  0.0000  0.0000
 9864OM     OM1 9864   5.316   7.356   8.823  0.0000  0.0000  0.0000
 9865OM     OM1 9865   1.668   3.720   0.788  0.0000  0.0000  0.0000
 9866OM     OM1 9866   1.861   3.795   0.638  0.0000  0.0000  0.0000
 9867OM     OM1 9867   4.468   1.681   0.799  0.0000  0.0000  0.0000
 9868OM     OM1 9868   4.459   1.461   0.951  0.0000  0.0000  0.0000
 9869OM     OM1 9869   4.252   1.606   0.903  0.0000  0.0000  0.0000
 9870OM     OM1 9870   3.204   6.892   9.001  0.0000  0.0000  0.0000
 9871OM     OM1 9871   4.245   0.265   0.638  0.0000  0.0000  0.0000
 9872OM     OM1 9872   4.425   0.166   0.470  0.0000  0.0000  0.0000
 9873OM     OM1 9873   6.016   4.029   8.590  0.0000  0.0000  0.0000
 9874OM     OM1 9874   5.908   3.973   8.817  0.0000  0.0000  0.0000
 9875OM     OM1 9875   7.634   8.655   8.537  0.0000  0.0000  0.0000
 9876OM     OM1 9876   7.769   8.520   8.717  0.0000  0.0000  0.0000
 9877OM     OM1 9877   7.985   1.638   1.117  0.0000  0.0000  0.0000
 9878OM     OM1 9878   7.919   1.545   0.878  0.0000  0.0000  0.0000
 9879OM     OM1 9879   4.553   8.280   0.438  0.0000  0.0000  0.0000
 9880OM     OM1 9880   1.314   6.804   0.774  0.0000  0.0000  0.0000
 9881OM     OM1 9881   1.215   6.885   0.550  0.0000  0.0000  0.0000
 9882OM     OM1 9882   2.213   6.135   8.732  0.0000  0.0000  0.0000
 9883OM     OM1 9883   2.322   6.261   8.933  0.0000  0.0000  0.0000
 9884OM     OM1 9884   6.221   6.648   0.276  0.0000  0.0000  0.0000
 9885OM     OM1 9885   0.439   9.336   0.897  0.0000  0.0000  0.0000
 9886OM     OM1 9886   1.163   7.967   9.305  0.0000  0.0000  0.0000
 9887OM     OM1 9887   4.932   2.209   0.242  0.0000  0.0000  0.0000
 9888OM     OM1 9888   5.076   2.576   0.418  0.0000  0.0000  0.0000
 9889OM     OM1 9889   5.041   2.454   0.203  0.0000  0.0000  0.0000
 9890OM     OM1 9890   5.629   6.375   9.208  0.0000  0.0000  0.0000
 9891OM     OM1 9891   5.854   6.509   9.239  0.0000  0.0000  0.0000
 9892OM     OM1 9892   5.630   6.626   9.207  0.0000  0.0000  0.0000
 9893OM     OM1 9893   4.086   0.687   0.528  0.0000  0.0000  0.0000
 9894OM     OM1 9894   4.191   0.510   0.671  0.0000  0.0000  0.0000
 9895OM     OM1 9895   2.901   2.476   9.250  0.0000  0.0000  0.0000
 9896OM     OM1 9896   9.150   6.605   0.295  0.0000  0.0000  0.0000
 9897OM     OM1 9897   4.064   0.184   0.000  0.0000  0.0000  0.0000
 9898OM     OM1 9898   3.870   0.275   0.143  0.0000  0.0000  0.0000
 9899OM     OM1 9899   6.774   3.195   1.279  0.0000  0.0000  0.0000
 9900OM     OM1 9900   8.085   1.168   0.362  0.0000  0.0000  0.0000
 9901OM     OM1 9901   7.862   1.205   0.497  0.0000  0.0000  0.0000
 9902OM     OM1 9902   7.929   0.964   0.421  0.0000  0.0000  0.0000
 9903OM     OM1 9903   3.034   3.732   1.282  0.0000  0.0000  0.0000
 9904OM     OM1 9904   2.875   3.511   1.262  0.0000  0.0000  0.0000
 9905OM     OM1 9905   2.819   3.730   1.134  0.0000  0.0000  0.0000
 9906OM     OM1 9906   1.268   5.522   9.391  0.0000  0.0000  0.0000
 9907OM     OM1 9907   1.095   5.455   9.578  0.0000  0.0000  0.0000
 9908OM     OM1 9908   6.974   0.853   8.915  0.0000  0.0000  0.0000
 9909OM     OM1 9909   6.810   0.658   8.906  0.0000  0.0000  0.0000
 9910OM     OM1 9910   7.320   9.257   8.422  0.0000  0.0000  0.0000
 9911OM     OM1 9911   3.055   9.394   8.763  0.0000  0.0000  0.0000
 9912OM     OM1 9912   7.641   8.561   9.316  0.0000  0.0000  0.0000
 9913OM     OM1 9913   6.957   3.669   0.990  0.0000  0.0000  0.0000
 9914OM     OM1 9914   5.526   0.257   8.795  0.0000  0.0000  0.0000
 9915OM     OM1 9915   5.785   0.226   8.809  0.0000  0.0000  0.0000
 9916OM     OM1 9916   5.036   2.329   9.310  0.0000  0.0000  0.0000
 9917OM     OM1 9917   2.715   5.009   0.673  0.0000  0.0000  0.0000
 9918OM     OM1 9918   2.764   5.004   0.418  0.0000  0.0000  0.0000
 9919OM     OM1 9919   3.995   6.588   8.566  0.0000  0.0000  0.0000
 9920OM     OM1 9920   4.137   6.432   8.713  0.0000  0.0000  0.0000
 9921OM     OM1 9921   7.115   4.809   8.758  0.0000  0.0000  0.0000
 9922OM     OM1 9922   3.572   6.180   0.341  0.0000  0.0000  0.0000
 9923OM     OM1 9923   3.372   6.660   0.321  0.0000  0.0000  0.0000
 9924OM     OM1 9924   7.842   7.442   9.166  0.0000  0.0000  0.0000
 9925OM     OM1 9925   7.852   7.715   9.148  0.0000  0.0000  0.0000
 9926OM     OM1 9926   8.001   1.309   0.937  0.0000  0.0000  0.0000
 9927OM     OM1 9927   2.682   9.502   8.302  0.0000  0.0000  0.0000
 9928OM     OM1 9928   7.506   7.538   9.507  0.0000  0.0000  0.0000
 9929OM     OM1 9929   4.679   2.812   9.192  0.0000  0.0000  0.0000
 9930OM     OM1 9930   2.484   0.852   8.355  0.0000  0.0000  0.0000
 9931OM     OM1 9931   8.703   4.981   9.387  0.0000  0.0000  0.0000
 9932OM     OM1 9932   8.578   5.034   0.003  0.0000  0.0000  0.0000
 9933OM     OM1 9933   4.352   4.841   1.115  0.0000  0.0000  0.0000
 9934OM     OM1 9934   7.852   0.725   0.533  0.0000  0.0000  0.0000
 9935OM     OM1 9935   3.560   9.256   8.805  0.0000  0.0000  0.0000
 9936OM     OM1 9936   0.138   4.388   9.546  0.0000  0.0000  0.0000
 9937OM     OM1 9937   9.589   4.265   9.382  0.0000  0.0000  0.0000
 9938OM     OM1 9938   6.251   7.718   0.503  0.0000  0.0000  0.0000
 9939OM     OM1 9939   8.161   7.819   8.556  0.0000  0.0000  0.0000
 9940OM     OM1 9940   8.040   8.122   8.889  0.0000  0.0000  0.0000
 9941OM     OM1 9941   3.972   7.168   0.138  0.0000  0.0000  0.0000
 9942OM     OM1 9942   3.755   7.091   0.030  0.0000  0.0000  0.0000
 9943OM     OM1 9943   1.344   0.627   8.682  0.0000  0.0000  0.0000
 9944OM     OM1 9944   6.081   7.386   0.664  0.0000  0.0000  0.0000
 9945OM     OM1 9945   1.810   4.885   0.515  0.0000  0.0000  0.0000
 9946OM     OM1 9946   1.613   4.847   0.356  0.0000  0.0000  0.0000
 9947OM     OM1 9947   8.751   2.592   0.852  0.0000  0.0000  0.0000
 9948OM     OM1 9948   8.977   2.595   0.974  0.0000  0.0000  0.0000
 9949OM     OM1 9949   8.542   6.711   1.130  0.0000  0.0000  0.0000
 9950OM     OM1 9950   8.486   6.473   1.241  0.0000  0.0000  0.0000
 9951OM     OM1 9951   4.698   3.776   9.206  0.0000  0.0000  0.0000
 9952OM     OM1 9952   4.501   3.945   9.218  0.0000  0.0000  0.0000
 9953OM     OM1 9953   4.683   3.965   9.029  0.0000  0.0000  0.0000
 9954OM     OM1 9954   4.751   4.025   9.271  0.0000  0.0000  0.0000
 9955OM     OM1 9955   5.481   5.636   8.910  0.0000  0.0000  0.0000
 9956OM     OM1 9956   1.520   8.668   0.157  0.0000  0.0000  0.0000
 9957OM     OM1 9957   9.063   9.303   0.138  0.0000  0.0000  0.0000
 9958OM     OM1 9958   0.898   3.137   9.542  0.0000  0.0000  0.0000
 9959OM     OM1 9959   8.981   8.940   9.120  0.0000  0.0000  0.0000
 9960OM     OM1 9960   9.067   8.865   9.344  0.0000  0.0000  0.0000
 9961OM     OM1 9961   4.918   1.011   0.843  0.0000  0.0000  0.0000
 9962OM     OM1 9962   8.544   1.539   8.439  0.0000  0.0000  0.0000
 9963OM     OM1 9963   8.669   1.310   8.397  0.0000  0.0000  0.0000
 9964OM     OM1 9964   7.630   3.243   8.529  0.0000  0.0000  0.0000
 9965OM     OM1 9965   4.529   5.220   1.090  0.0000  0.0000  0.0000
 9966OM     OM1 9966   4.267   5.173   1.079  0.0000  0.0000  0.0000
 9967OM     OM1 9967   6.468   4.310   8.951  0.0000  0.0000  0.0000
 9968OM     OM1 9968   4.752   8.230   0.074  0.0000  0.0000  0.0000
 9969OM     OM1 9969   4.955   8.072   0.095  0.0000  0.0000  0.0000
 9970OM     OM1 9970   1.474   6.657   9.192  0.0000  0.0000  0.0000
 9971OM     OM1 9971   6.195   4.453   1.237  0.0000  0.0000  0.0000
 9972OM     OM1 9972   6.197   4.607   1.015  0.0000  0.0000  0.0000
 9973OM     OM1 9973   0.158   4.258   0.901  0.0000  0.0000  0.0000
 9974OM     OM1 9974   0.145   3.840   8.711  0.0000  0.0000  0.0000
 9975OM     OM1 9975   0.173   3.784   8.949  0.0000  0.0000  0.0000
 9976OM     OM1 9976   2.344   7.564   0.475  0.0000  0.0000  0.0000
 9977OM     OM1 9977   7.999   8.502   8.604  0.0000  0.0000  0.0000
 9978OM     OM1 9978   8.375   8.752   8.420  0.0000  0.0000  0.0000
 9979OM     OM1 9979   3.360   5.746   0.704  0.0000  0.0000  0.0000
 9980OM     OM1 9980   3.482   5.963   0.696  0.0000  0.0000  0.0000
 9981OM     OM1 9981   3.525   3.275   0.247  0.0000  0.0000  0.0000
 9982OM     OM1 9982   5.454   4.403   8.717  0.0000  0.0000  0.0000
 9983OM     OM1 9983   1.027   5.078   8.902  0.0000  0.0000  0.0000
 9984OM     OM1 9984   1.138   0.442   0.746  0.0000  0.0000  0.0000
 9985OM     OM1 9985   1.319   0.324   0.886  0.0000  0.0000  0.0000
 9986OM     OM1 9986   0.202   7.488   9.517  0.0000  0.0000  0.0000
 9987OM     OM1 9987   0.078   0.657   0.337  0.0000  0.0000  0.0000
 9988OM     OM1 9988   6.488   4.908   9.093  0.0000  0.0000  0.0000
 9989OM     OM1 9989   6.433   4.676   9.200  0.0000  0.0000  0.0000
 9990OM     OM1 9990   1.400   0.891   1.290  0.0000  0.0000  0.0000
 9991OM     OM1 9991   0.778   6.100   1.342  0.0000  0.0000  0.0000
 9992OM     OM1 9992   0.647   6.282   1.201  0.0000  0.0000  0.0000
 9993OM     OM1 9993   3.754   9.353   1.179  0.0000  0.0000  0.0000
 9994OM     OM1 9994   4.143   9.460   1.047  0.0000  0.0000  0.0000
 9995OM     OM1 9995   4.010   9.381   1.253  0.0000  0.0000  0.0000
 9996OM     OM1 9996   5.494   1.097   0.007  0.0000  0.0000  0.0000
 9997OM     OM1 9997   8.697   7.138   8.559  0.0000  0.0000  0.0000
 9998OM     OM1 9998   8.647   7.396   8.510  0.0000  0.0000  0.0000
 9999OM     OM1 9999   8.726   7.259   0.275  0.0000  0.0000  0.0000
10000OM     OM110000   8.778   7.432   0.456  0.0000  0.0000  0.0000
10001OM     OM110001   8.956   7.252   0.380  0.0000  0.0000  0.0000
10002OM     OM110002   1.153   4.299   8.681  0.0000  0.0000  0.0000
10003OM     OM110003   1.331   4.165   8.781  0.0000  0.0000  0.0000
10004OM     OM110004   1.380   4.301   8.559  0.0000  0.0000  0.0000
10005OM     OM110005   2.155   6.196   9.592  0.0000  0.0000  0.0000
10006OM     OM110006   1.960   6.284   0.118  0.0000  0.0000  0.0000
10007OM     OM110007   5.593   5.727   0.362  0.0000  0.0000  0.0000
10008OM     OM110008   6.542   6.008   1.066  0.0000  0.0000  0.0000
10009OM     OM110009   3.800   9.321   8.855  0.0000  0.0000  0.0000
10010OM     OM110010   2.052   1.952   0.258  0.0000  0.0000  0.0000
10011OM     OM110011   2.285   1.844   0.280  0.0000  0.0000  0.0000
10012OM     OM110012   8.075   4.448   8.235  0.0000  0.0000  0.0000
10013OM     OM110013   0.781   8.314   9.211  0.0000  0.0000  0.0000
10014OM     OM110014   0.721   8.083   9.109  0.0000  0.0000  0.0000
10015OM     OM110015   8.042   4.203   8.776  0.0000  0.0000  0.0000
10016OM     OM110016   6.863   0.566   0.463  0.0000  0.0000  0.0000
10017OM     OM110017   6.969   0.616   0.224  0.0000  0.0000  0.0000
10018OM     OM110018   1.947   4.669   0.496  0.0000  0.0000  0.0000
10019OM     OM110019   1.895   4.455   0.354  0.0000  0.0000  0.0000
10020OM     OM110020   2.036   4.649   0.245  0.0000  0.0000  0.0000
10021OM     OM110021   2.228   1.532   1.083  0.0000  0.0000  0.0000
10022OM     OM110022   8.343   8.751   8.882  0.0000  0.0000  0.0000
10023OM     OM110023   8.444   8.812   8.662  0.0000  0.0000  0.0000
10024OM     OM110024   8.102   8.809   8.906  0.0000  0.0000  0.0000
10025OM     OM110025   1.440   2.477   9.169  0.0000  0.0000  0.0000
10026OM     OM110026   1.469   0.305   0.180  0.0000  0.0000  0.0000
10027OM     OM110027   4.313   3.023   0.308  0.0000  0.0000  0.0000
10028OM     OM110028   4.374   3.271   0.363  0.0000  0.0000  0.0000
10029OM     OM110029   9.319   7.879   8.733  0.0000  0.0000  0.0000
10030OM     OM110030   6.948   2.629   1.342  0.0000  0.0000  0.0000
10031OM     OM110031   7.463   9.359   8.621  0.0000  0.0000  0.0000
10032OM     OM110032   7.517   0.108   8.554  0.0000  0.0000  0.0000
10033OM     OM110033   0.471   2.372   1.267  0.0000  0.0000  0.0000
10034OM     OM110034   6.444   4.055   1.343  0.0000  0.0000  0.0000
10035OM     OM110035   6.607   4.244   1.266  0.0000  0.0000  0.0000
10036OM     OM110036   6.368   4.298   1.357  0.0000  0.0000  0.0000
10037OM     OM110037   0.790   6.113   8.768  0.0000  0.0000  0.0000
10038OM     OM110038   0.771   6.364   8.697  0.0000  0.0000  0.0000
10039OM     OM110039   6.750   5.322   0.127  0.0000  0.0000  0.0000
10040OM     OM110040   0.715   6.299   9.096  0.0000  0.0000  0.0000
10041OM     OM110041   0.913   7.759   9.482  0.0000  0.0000  0.0000
10042OM     OM110042   6.107   0.829   8.543  0.0000  0.0000  0.0000
10043OM     OM110043   6.084   1.068   8.438  0.0000  0.0000  0.0000
10044OM     OM110044   2.294   0.705   8.915  0.0000  0.0000  0.0000
10045OM     OM110045   2.429   0.908   9.016  0.0000  0.0000  0.0000
10046OM     OM110046   4.038   4.764   8.470  0.0000  0.0000  0.0000
10047OM     OM110047   3.878   4.938   8.372  0.0000  0.0000  0.0000
10048OM     OM110048   1.503   9.137   1.290  0.0000  0.0000  0.0000
10049OM     OM110049   1.912   1.842   8.432  0.0000  0.0000  0.0000
10050OM     OM110050   2.086   1.947   8.602  0.0000  0.0000  0.0000
10051OM     OM110051   2.973   3.052   0.712  0.0000  0.0000  0.0000
10052OM     OM110052   8.234   1.821   0.458  0.0000  0.0000  0.0000
10053OM     OM110053   7.443   0.445   8.203  0.0000  0.0000  0.0000
10054OM     OM110054   2.154   2.665   0.490  0.0000  0.0000  0.0000
10055OM     OM110055   6.673   8.858   8.593  0.0000  0.0000  0.0000
10056OM     OM110056   7.451   8.024   0.644  0.0000  0.0000  0.0000
10057OM     OM110057   0.240   8.022   0.642  0.0000  0.0000  0.0000
10058OM     OM110058   0.274   8.049   0.387  0.0000  0.0000  0.0000
10059OM     OM110059   8.652   4.008   0.347  0.0000  0.0000  0.0000
10060OM     OM110060   8.663   3.746   0.405  0.0000  0.0000  0.0000
10061OM     OM110061   8.837   3.867   0.244  0.0000  0.0000  0.0000
10062OM     OM110062   3.088   1.288   0.591  0.0000  0.0000  0.0000
10063OM     OM110063   0.070   8.071   8.470  0.0000  0.0000  0.0000
10064OM     OM110064   0.188   8.318   8.664  0.0000  0.0000  0.0000
10065OM     OM110065   5.057   7.562   0.395  0.0000  0.0000  0.0000
10066OM     OM110066   4.889   7.675   0.546  0.0000  0.0000  0.0000
10067OM     OM110067   2.383   3.449   8.561  0.0000  0.0000  0.0000
10068OM     OM110068   2.950   3.311   8.472  0.0000  0.0000  0.0000
10069OM     OM110069   2.923   3.566   8.371  0.0000  0.0000  0.0000
10070OM     OM110070   1.437   8.530   9.563  0.0000  0.0000  0.0000
10071OM     OM110071   1.281   4.642   9.037  0.0000  0.0000  0.0000
10072OM     OM110072   6.791   0.950   0.950  0.0000  0.0000  0.0000
10073OM     OM110073   6.530   0.974   0.939  0.0000  0.0000  0.0000
10074OM     OM110074   5.260   0.675   8.795  0.0000  0.0000  0.0000
10075OM     OM110075   5.153   0.804   8.349  0.0000  0.0000  0.0000
10076OM     OM110076   8.146   2.731   1.118  0.0000  0.0000  0.0000
10077OM     OM110077   4.963   5.150   0.643  0.0000  0.0000  0.0000
10078OM     OM110078   5.184   5.068   0.522  0.0000  0.0000  0.0000
10079OM     OM110079   5.177   5.310   0.591  0.0000  0.0000  0.0000
10080OM     OM110080   1.214   7.307   8.341  0.0000  0.0000  0.0000
10081OM     OM110081   1.393   7.564   8.482  0.0000  0.0000  0.0000
10082OM     OM110082   2.170   0.127   1.113  0.0000  0.0000  0.0000
10083OM     OM110083   5.156   6.973   8.297  0.0000  0.0000  0.0000
10084OM     OM110084   4.923   7.343   8.541  0.0000  0.0000  0.0000
10085OM     OM110085   0.955   1.361   8.319  0.0000  0.0000  0.0000
10086OM     OM110086   1.027   1.124   8.239  0.0000  0.0000  0.0000
10087OM     OM110087   8.563   4.900   1.198  0.0000  0.0000  0.0000
10088OM     OM110088   5.031   1.164   9.187  0.0000  0.0000  0.0000
10089OM     OM110089   3.473   5.053   0.677  0.0000  0.0000  0.0000
10090OM     OM110090   6.154   6.428   0.375  0.0000  0.0000  0.0000
10091OM     OM110091   7.807   5.074   9.190  0.0000  0.0000  0.0000
10092OM     OM110092   7.764   4.966   9.434  0.0000  0.0000  0.0000
10093OM     OM110093   6.088   3.824   8.922  0.0000  0.0000  0.0000
10094OM     OM110094   5.827   3.826   9.002  0.0000  0.0000  0.0000
10095OM     OM110095   1.949   0.699   9.212  0.0000  0.0000  0.0000
10096OM     OM110096   1.775   0.893   9.194  0.0000  0.0000  0.0000
10097OM     OM110097   5.386   7.119   8.739  0.0000  0.0000  0.0000
10098OM     OM110098   3.602   7.630   0.424  0.0000  0.0000  0.0000
10099OM     OM110099   3.733   7.394   0.467  0.0000  0.0000  0.0000
10100OM     OM110100   3.483   7.399   0.441  0.0000  0.0000  0.0000
10101OM     OM110101   5.392   4.679   0.326  0.0000  0.0000  0.0000
10102OM     OM110102   1.638   1.912   9.437  0.0000  0.0000  0.0000
10103OM     OM110103   1.573   1.674   9.471  0.0000  0.0000  0.0000
10104OM     OM110104   3.918   2.525   1.237  0.0000  0.0000  0.0000
10105OM     OM110105   1.034   5.338   8.454  0.0000  0.0000  0.0000
10106OM     OM110106   3.389   5.238   8.986  0.0000  0.0000  0.0000
10107OM     OM110107   3.619   8.131   9.445  0.0000  0.0000  0.0000
10108OM     OM110108   2.136   5.030   0.634  0.0000  0.0000  0.0000
10109OM     OM110109   1.987   4.835   0.701  0.0000  0.0000  0.0000
10110OM     OM110110   2.993   8.682   8.896  0.0000  0.0000  0.0000
10111OM     OM110111   2.989   8.739   8.649  0.0000  0.0000  0.0000
10112OM     OM110112   1.437   2.134   8.865  0.0000  0.0000  0.0000
10113OM     OM110113   1.428   2.196   8.617  0.0000  0.0000  0.0000
10114OM     OM110114   3.833   3.431   8.580  0.0000  0.0000  0.0000
10115OM     OM110115   8.768   7.678   0.363  0.0000  0.0000  0.0000
10116OM     OM110116   8.653   7.629   0.590  0.0000  0.0000  0.0000
10117OM     OM110117   1.547   1.129   0.663  0.0000  0.0000  0.0000
10118OM     OM110118   1.370   0.964   0.568  0.0000  0.0000  0.0000
10119OM     OM110119   5.337   2.269   1.088  0.0000  0.0000  0.0000
10120OM     OM110120   3.420   3.158   0.461  0.0000  0.0000  0.0000
10121OM     OM110121   8.380   3.259   1.242  0.0000  0.0000  0.0000
10122OM     OM110122   2.320   7.307   9.012  0.0000  0.0000  0.0000
10123OM     OM110123   7.540   1.845   9.239  0.0000  0.0000  0.0000
10124OM     OM110124   3.194   4.682   8.279  0.0000  0.0000  0.0000
10125OM     OM110125   2.095   2.204   0.308  0.0000  0.0000  0.0000
10126OM     OM110126   2.090   2.037   0.506  0.0000  0.0000  0.0000
10127OM     OM110127   7.658   2.611   0.248  0.0000  0.0000  0.0000
10128OM     OM110128   0.661   3.530   0.528  0.0000  0.0000  0.0000
10129OM     OM110129   8.680   7.841   0.738  0.0000  0.0000  0.0000
10130OM     OM110130   8.820   7.966   0.931  0.0000  0.0000  0.0000
10131OM     OM110131   7.192   4.459   8.931  0.0000  0.0000  0.0000
10132OM     OM110132   2.575   8.381   0.038  0.0000  0.0000  0.0000
10133OM     OM110133   2.781   8.287   9.536  0.0000  0.0000  0.0000
10134OM     OM110134   2.539   8.161   9.518  0.0000  0.0000  0.0000
10135OM     OM110135   2.667   8.134   0.120  0.0000  0.0000  0.0000
10136OM     OM110136   2.529   0.789   9.558  0.0000  0.0000  0.0000
10137OM     OM110137   2.956   8.715   9.154  0.0000  0.0000  0.0000
10138OM     OM110138   1.247   0.988   0.336  0.0000  0.0000  0.0000
10139OM     OM110139   7.929   2.828   0.993  0.0000  0.0000  0.0000
10140OM     OM110140   9.508   1.675   8.292  0.0000  0.0000  0.0000
10141OM     OM110141   8.509   7.584   8.363  0.0000  0.0000  0.0000
10142OM     OM110142   8.152   7.482   0.150  0.0000  0.0000  0.0000
10143OM     OM110143   5.858   6.492   8.398  0.0000  0.0000  0.0000
10144OM     OM110144   8.713   6.503   8.464  0.0000  0.0000  0.0000
10145OM     OM110145   0.807   1.306   1.088  0.0000  0.0000  0.0000
10146OM     OM110146   0.775   1.060   1.202  0.0000  0.0000  0.0000
10147OM     OM110147   0.671   1.117   0.973  0.0000  0.0000  0.0000
10148OM     OM110148   7.272   6.542   1.313  0.0000  0.0000  0.0000
10149OM     OM110149   7.154   6.338   1.196  0.0000  0.0000  0.0000
10150OM     OM110150   8.975   9.548   0.166  0.0000  0.0000  0.0000
10151OM     OM110151   8.833   9.352   0.041  0.0000  0.0000  0.0000
10152OM     OM110152   8.842   4.821   0.273  0.0000  0.0000  0.0000
10153OM     OM110153   3.949   1.253   1.010  0.0000  0.0000  0.0000
10154OM     OM110154   4.154   1.394   1.011  0.0000  0.0000  0.0000
10155OM     OM110155   8.593   1.215   9.343  0.0000  0.0000  0.0000
10156OM     OM110156   8.265   1.288   9.156  0.0000  0.0000  0.0000
10157OM     OM110157   2.639   1.118   0.663  0.0000  0.0000  0.0000
10158OM     OM110158   3.305   3.775   1.219  0.0000  0.0000  0.0000
10159OM     OM110159   1.116   0.984   8.441  0.0000  0.0000  0.0000
10160OM     OM110160   0.897   5.556   0.112  0.0000  0.0000  0.0000
10161OM     OM110161   0.891   0.483   0.699  0.0000  0.0000  0.0000
10162OM     OM110162   0.662   0.509   0.820  0.0000  0.0000  0.0000
10163OM     OM110163   6.365   0.279   9.269  0.0000  0.0000  0.0000
10164OM     OM110164   6.374   0.496   9.143  0.0000  0.0000  0.0000
10165OM     OM110165   7.838   4.346   8.260  0.0000  0.0000  0.0000
10166OM     OM110166   4.792   3.101   0.991  0.0000  0.0000  0.0000
10167OM     OM110167   1.067   2.293   9.400  0.0000  0.0000  0.0000
10168OM     OM110168   0.169   1.924   9.279  0.0000  0.0000  0.0000
10169OM     OM110169   0.147   2.097   9.074  0.0000  0.0000  0.0000
10170OM     OM110170   1.430   3.660   0.851  0.0000  0.0000  0.0000
10171OM     OM110171   3.221   3.042   0.596  0.0000  0.0000  0.0000
10172OM     OM110172   2.775   9.420   0.661  0.0000  0.0000  0.0000
10173OM     OM110173   3.017   9.296   0.616  0.0000  0.0000  0.0000
10174OM     OM110174   6.012   0.257   8.923  0.0000  0.0000  0.0000
10175OM     OM110175   5.080   3.189   9.285  0.0000  0.0000  0.0000
10176OM     OM110176   5.132   2.974   9.140  0.0000  0.0000  0.0000
10177OM     OM110177   1.459   4.811   8.960  0.0000  0.0000  0.0000
10178OM     OM110178   4.903   3.620   9.161  0.0000  0.0000  0.0000
10179OM     OM110179   5.051   3.445   9.265  0.0000  0.0000  0.0000
10180OM     OM110180   5.160   3.665   9.171  0.0000  0.0000  0.0000
10181OM     OM110181   8.539   7.848   0.517  0.0000  0.0000  0.0000
10182OM     OM110182   8.451   7.724   0.734  0.0000  0.0000  0.0000
10183OM     OM110183   0.177   1.975   9.543  0.0000  0.0000  0.0000
10184OM     OM110184   0.392   2.099   0.043  0.0000  0.0000  0.0000
10185OM     OM110185   7.335   5.206   1.234  0.0000  0.0000  0.0000
10186OM     OM110186   7.589   1.939   8.997  0.0000  0.0000  0.0000
10187OM     OM110187   6.523   3.266   8.741  0.0000  0.0000  0.0000
10188OM     OM110188   6.717   3.162   8.883  0.0000  0.0000  0.0000
10189OM     OM110189   6.662   9.082   8.746  0.0000  0.0000  0.0000
10190OM     OM110190   1.769   5.650   8.641  0.0000  0.0000  0.0000
10191OM     OM110191   1.931   5.555   8.819  0.0000  0.0000  0.0000
10192OM     OM110192   4.563   9.572   9.144  0.0000  0.0000  0.0000
10193OM     OM110193   4.404   0.028   8.960  0.0000  0.0000  0.0000
10194OM     OM110194   4.627   8.671   1.077  0.0000  0.0000  0.0000
10195OM     OM110195   4.793   8.537   1.281  0.0000  0.0000  0.0000
10196OM     OM110196   0.047   2.375   8.659  0.0000  0.0000  0.0000
10197OM     OM110197   0.193   2.247   8.486  0.0000  0.0000  0.0000
10198OM     OM110198   2.124   6.143   0.719  0.0000  0.0000  0.0000
10199OM     OM110199   5.543   7.112   1.247  0.0000  0.0000  0.0000
10200OM     OM110200   2.909   1.985   8.894  0.0000  0.0000  0.0000
10201OM     OM110201   4.294   1.067   9.300  0.0000  0.0000  0.0000
10202OM     OM110202   4.272   1.171   9.060  0.0000  0.0000  0.0000
10203OM     OM110203   6.292   5.733   9.546  0.0000  0.0000  0.0000
10204OM     OM110204   7.331   1.991   0.216  0.0000  0.0000  0.0000
10205OM     OM110205   3.700   5.893   0.564  0.0000  0.0000  0.0000
10206OM     OM110206   9.296   0.342   0.240  0.0000  0.0000  0.0000
10207OM     OM110207   9.139   0.124   0.259  0.0000  0.0000  0.0000
10208OM     OM110208   9.354   0.147   0.083  0.0000  0.0000  0.0000
10209OM     OM110209   1.005   8.750   9.461  0.0000  0.0000  0.0000
10210OM     OM110210   1.264   8.691   9.459  0.0000  0.0000  0.0000
10211OM     OM110211   9.201   1.452   8.790  0.0000  0.0000  0.0000
10212OM     OM110212   9.429   1.339   8.878  0.0000  0.0000  0.0000
10213OM     OM110213   1.102   7.527   8.258  0.0000  0.0000  0.0000
10214OM     OM110214   0.520   2.356   8.973  0.0000  0.0000  0.0000
10215OM     OM110215   0.645   2.577   8.876  0.0000  0.0000  0.0000
10216OM     OM110216   0.817   6.519   0.732  0.0000  0.0000  0.0000
10217OM     OM110217   0.496   7.917   0.345  0.0000  0.0000  0.0000
10218OM     OM110218   2.794   4.805   0.237  0.0000  0.0000  0.0000
10219OM     OM110219   2.725   5.044   0.165  0.0000  0.0000  0.0000
10220OM     OM110220   4.019   5.630   1.023  0.0000  0.0000  0.0000
10221OM     OM110221   4.124   5.842   1.138  0.0000  0.0000  0.0000
10222OM     OM110222   3.966   5.687   1.278  0.0000  0.0000  0.0000
10223OM     OM110223   0.222   2.029   0.952  0.0000  0.0000  0.0000
10224OM     OM110224   9.565   4.558   0.028  0.0000  0.0000  0.0000
10225OM     OM110225   3.557   7.815   8.928  0.0000  0.0000  0.0000
10226OM     OM110226   3.532   7.568   8.858  0.0000  0.0000  0.0000
10227OM     OM110227   3.343   7.738   8.796  0.0000  0.0000  0.0000
10228OM     OM110228   2.358   3.537   9.001  0.0000  0.0000  0.0000
10229OM     OM110229   0.441   2.307   8.490  0.0000  0.0000  0.0000
10230OM     OM110230   9.518   4.364   8.451  0.0000  0.0000  0.0000
10231OM     OM110231   1.353   8.439   8.680  0.0000  0.0000  0.0000
10232OM     OM110232   2.372   4.080   9.023  0.0000  0.0000  0.0000
10233OM     OM110233   2.571   3.977   9.153  0.0000  0.0000  0.0000
10234OM     OM110234   1.871   8.897   0.025  0.0000  0.0000  0.0000
10235OM     OM110235   1.658   9.039   0.063  0.0000  0.0000  0.0000
10236OM     OM110236   6.265   6.955   0.559  0.0000  0.0000  0.0000
10237OM     OM110237   6.219   7.204   0.503  0.0000  0.0000  0.0000
10238OM     OM110238   0.478   4.820   8.360  0.0000  0.0000  0.0000
10239OM     OM110239   0.402   5.056   8.403  0.0000  0.0000  0.0000
10240OM     OM110240   9.354   7.102   9.025  0.0000  0.0000  0.0000
10241OM     OM110241   9.297   7.251   8.817  0.0000  0.0000  0.0000
10242OM     OM110242   7.819   3.923   9.577  0.0000  0.0000  0.0000
10243OM     OM110243   7.794   4.098   9.381  0.0000  0.0000  0.0000
10244OM     OM110244   8.584   3.004   0.438  0.0000  0.0000  0.0000
10245OM     OM110245   4.142   2.686   9.318  0.0000  0.0000  0.0000
10246OM     OM110246   7.837   7.873   9.347  0.0000  0.0000  0.0000
10247OM     OM110247   3.196   6.378   9.007  0.0000  0.0000  0.0000
10248OM     OM110248   4.710   6.310   9.220  0.0000  0.0000  0.0000
10249OM     OM110249   4.882   6.104   9.157  0.0000  0.0000  0.0000
10250OM     OM110250   3.963   0.850   0.690  0.0000  0.0000  0.0000
10251OM     OM110251   7.406   4.133   9.540  0.0000  0.0000  0.0000
10252OM     OM110252   7.546   4.156   9.319  0.0000  0.0000  0.0000
10253OM     OM110253   1.520   4.027   9.000  0.0000  0.0000  0.0000
10254OM     OM110254   1.642   4.200   9.145  0.0000  0.0000  0.0000
10255OM     OM110255   1.252   1.962   8.952  0.0000  0.0000  0.0000
10256OM     OM110256   5.974   2.922   0.623  0.0000  0.0000  0.0000
10257OM     OM110257   6.128   2.958   0.413  0.0000  0.0000  0.0000
10258OM     OM110258   8.751   0.760   8.607  0.0000  0.0000  0.0000
10259OM     OM110259   8.353   0.604   8.591  0.0000  0.0000  0.0000
10260OM     OM110260   4.819   8.214   9.289  0.0000  0.0000  0.0000
10261OM     OM110261   4.639   8.406   9.354  0.0000  0.0000  0.0000
10262OM     OM110262   9.540   0.629   0.845  0.0000  0.0000  0.0000
10263OM     OM110263   8.289   2.383   0.457  0.0000  0.0000  0.0000
10264OM     OM110264   8.045   2.481   0.510  0.0000  0.0000  0.0000
10265OM     OM110265   4.243   7.766   8.649  0.0000  0.0000  0.0000
10266OM     OM110266   1.937   3.519   0.332  0.0000  0.0000  0.0000
10267OM     OM110267   1.976   3.762   0.423  0.0000  0.0000  0.0000
10268OM     OM110268   6.262   4.380   8.812  0.0000  0.0000  0.0000
10269OM     OM110269   6.329   4.513   9.026  0.0000  0.0000  0.0000
10270OM     OM110270   4.138   2.634   1.269  0.0000  0.0000  0.0000
10271OM     OM110271   4.102   2.652   1.011  0.0000  0.0000  0.0000
10272OM     OM110272   8.086   9.070   8.861  0.0000  0.0000  0.0000
10273OM     OM110273   7.737   9.182   8.969  0.0000  0.0000  0.0000
10274OM     OM110274   8.023   5.286   1.221  0.0000  0.0000  0.0000
10275OM     OM110275   8.276   5.295   0.842  0.0000  0.0000  0.0000
10276OM     OM110276   2.120   2.773   8.393  0.0000  0.0000  0.0000
10277OM     OM110277   2.332   2.541   0.627  0.0000  0.0000  0.0000
10278OM     OM110278   2.212   2.412   0.423  0.0000  0.0000  0.0000
10279OM     OM110279   3.209   8.341   9.530  0.0000  0.0000  0.0000
10280OM     OM110280   3.132   8.578   9.584  0.0000  0.0000  0.0000
10281OM     OM110281   4.416   8.790   9.158  0.0000  0.0000  0.0000
10282OM     OM110282   9.457   5.627   8.628  0.0000  0.0000  0.0000
10283OM     OM110283   9.545   5.567   8.863  0.0000  0.0000  0.0000
10284OM     OM110284   2.440   6.768   0.917  0.0000  0.0000  0.0000
10285OM     OM110285   1.405   3.401   0.845  0.0000  0.0000  0.0000
10286OM     OM110286   0.800   3.442   8.366  0.0000  0.0000  0.0000
10287OM     OM110287   0.578   6.074   9.125  0.0000  0.0000  0.0000
10288OM     OM110288   4.336   3.587   8.988  0.0000  0.0000  0.0000
10289OM     OM110289   5.789   2.640   9.124  0.0000  0.0000  0.0000
10290OM     OM110290   5.751   2.982   8.747  0.0000  0.0000  0.0000
10291OM     OM110291   1.464   8.733   8.556  0.0000  0.0000  0.0000
10292OM     OM110292   9.533   5.987   0.543  0.0000  0.0000  0.0000
10293OM     OM110293   8.941   4.725   9.258  0.0000  0.0000  0.0000
10294OM     OM110294   8.740   4.859   9.161  0.0000  0.0000  0.0000
10295OM     OM110295   1.492   4.661   0.108  0.0000  0.0000  0.0000
10296OM     OM110296   1.683   8.943   1.302  0.0000  0.0000  0.0000
10297OM     OM110297   3.082   8.918   9.281  0.0000  0.0000  0.0000
10298OM     OM110298   2.994   8.717   9.416  0.0000  0.0000  0.0000
10299OM     OM110299   8.042   4.610   8.948  0.0000  0.0000  0.0000
10300OM     OM110300   2.503   4.779   9.446  0.0000  0.0000  0.0000
10301OM     OM110301   2.635   4.871   9.239  0.0000  0.0000  0.0000
10302OM     OM110302   2.717   4.762   9.601  0.0000  0.0000  0.0000
10303OM     OM110303   0.878   1.293   8.561  0.0000  0.0000  0.0000
10304OM     OM110304   1.553   2.886   9.373  0.0000  0.0000  0.0000
10305OM     OM110305   0.746   0.480   9.476  0.0000  0.0000  0.0000
10306OM     OM110306   5.414   2.130   1.288  0.0000  0.0000  0.0000
10307OM     OM110307   5.201   1.998   1.335  0.0000  0.0000  0.0000
10308OM     OM110308   2.045   5.582   0.733  0.0000  0.0000  0.0000
10309OM     OM110309   2.878   8.529   9.542  0.0000  0.0000  0.0000
10310OM     OM110310   2.990   8.360   9.390  0.0000  0.0000  0.0000
10311OM     OM110311   0.644   7.108   0.943  0.0000  0.0000  0.0000
10312OM     OM110312   0.638   7.020   1.204  0.0000  0.0000  0.0000
10313OM     OM110313   7.665   7.080   0.036  0.0000  0.0000  0.0000
10314OM     OM110314   9.419   2.031   1.264  0.0000  0.0000  0.0000
10315OM     OM110315   5.758   6.774   0.866  0.0000  0.0000  0.0000
10316OM     OM110316   5.890   6.578   0.928  0.0000  0.0000  0.0000
10317OM     OM110317   7.018   5.607   1.087  0.0000  0.0000  0.0000
10318OM     OM110318   4.386   8.669   0.555  0.0000  0.0000  0.0000
10319OM     OM110319   4.255   8.595   0.760  0.0000  0.0000  0.0000
10320OM     OM110320   4.195   8.495   0.530  0.0000  0.0000  0.0000
10321OM     OM110321   4.805   3.588   0.548  0.0000  0.0000  0.0000
10322OM     OM110322   4.839   3.337   0.629  0.0000  0.0000  0.0000
10323OM     OM110323   4.663   8.837   9.157  0.0000  0.0000  0.0000
10324OM     OM110324   1.409   8.321   0.514  0.0000  0.0000  0.0000
10325OM     OM110325   1.364   3.861   9.138  0.0000  0.0000  0.0000
10326OM     OM110326   1.302   3.942   8.905  0.0000  0.0000  0.0000
10327OM     OM110327   0.063   5.606   9.084  0.0000  0.0000  0.0000
10328OM     OM110328   4.531   2.674   9.006  0.0000  0.0000  0.0000
10329OM     OM110329   2.585   4.172   8.146  0.0000  0.0000  0.0000
10330OM     OM110330   4.106   3.643   1.278  0.0000  0.0000  0.0000
10331OM     OM110331   3.747   4.061   9.537  0.0000  0.0000  0.0000
10332OM     OM110332   3.970   4.129   0.049  0.0000  0.0000  0.0000
10333OM     OM110333   2.278   2.514   8.938  0.0000  0.0000  0.0000
10334OM     OM110334   8.813   6.521   0.537  0.0000  0.0000  0.0000
10335OM     OM110335   9.019   6.422   0.411  0.0000  0.0000  0.0000
10336OM     OM110336   0.682   8.363   0.557  0.0000  0.0000  0.0000
10337OM     OM110337   0.651   8.655   1.032  0.0000  0.0000  0.0000
10338OM     OM110338   0.451   8.795   0.952  0.0000  0.0000  0.0000
10339OM     OM110339   8.931   8.926   0.371  0.0000  0.0000  0.0000
10340OM     OM110340   8.697   8.943   0.495  0.0000  0.0000  0.0000
10341OM     OM110341   2.116   7.391   8.875  0.0000  0.0000  0.0000
10342OM     OM110342   0.450   0.660   0.849  0.0000  0.0000  0.0000
10343OM     OM110343   0.439   0.435   0.717  0.0000  0.0000  0.0000
10344OM     OM110344   8.847   8.210   8.919  0.0000  0.0000  0.0000
10345OM     OM110345   9.032   8.186   9.099  0.0000  0.0000  0.0000
10346OM     OM110346   7.974   0.652   0.742  0.0000  0.0000  0.0000
10347OM     OM110347   4.097   7.621   8.815  0.0000  0.0000  0.0000
10348OM     OM110348   2.088   7.570   0.496  0.0000  0.0000  0.0000
10349OM     OM110349   7.941   8.354   8.821  0.0000  0.0000  0.0000
10350OM     OM110350   6.028   4.503   0.849  0.0000  0.0000  0.0000
10351OM     OM110351   4.535   8.311   9.558  0.0000  0.0000  0.0000
10352OM     OM110352   4.525   8.224   0.189  0.0000  0.0000  0.0000
10353OM     OM110353   4.578   8.051   9.601  0.0000  0.0000  0.0000
10354OM     OM110354   1.730   7.238   0.038  0.0000  0.0000  0.0000
10355OM     OM110355   1.502   4.782   1.250  0.0000  0.0000  0.0000
10356OM     OM110356   2.950   8.598   8.410  0.0000  0.0000  0.0000
10357OM     OM110357   0.887   0.924   8.336  0.0000  0.0000  0.0000
10358OM     OM110358   5.067   1.490   8.688  0.0000  0.0000  0.0000
10359OM     OM110359   4.858   1.459   8.533  0.0000  0.0000  0.0000
10360OM     OM110360   3.437   0.426   8.762  0.0000  0.0000  0.0000
10361OM     OM110361   3.397   0.634   8.931  0.0000  0.0000  0.0000
10362OM     OM110362   3.487   0.389   9.007  0.0000  0.0000  0.0000
10363OM     OM110363   5.521   6.722   0.656  0.0000  0.0000  0.0000
10364OM     OM110364   5.304   6.632   0.760  0.0000  0.0000  0.0000
10365OM     OM110365   5.388   6.867   0.827  0.0000  0.0000  0.0000
10366OM     OM110366   3.211   5.315   0.649  0.0000  0.0000  0.0000
10367OM     OM110367   3.046   5.474   0.775  0.0000  0.0000  0.0000
10368OM     OM110368   4.311   3.035   8.826  0.0000  0.0000  0.0000
10369OM     OM110369   4.130   3.054   8.647  0.0000  0.0000  0.0000
10370OM     OM110370   5.345   6.910   8.552  0.0000  0.0000  0.0000
10371OM     OM110371   5.506   7.110   8.505  0.0000  0.0000  0.0000
10372OM     OM110372   0.962   2.364   0.358  0.0000  0.0000  0.0000
10373OM     OM110373   0.824   2.530   0.510  0.0000  0.0000  0.0000
10374OM     OM110374   0.722   2.441   0.287  0.0000  0.0000  0.0000
10375OM     OM110375   0.927   2.610   0.283  0.0000  0.0000  0.0000
10376OM     OM110376   0.020   2.947   8.563  0.0000  0.0000  0.0000
10377OM     OM110377   5.299   7.810   0.324  0.0000  0.0000  0.0000
10378OM     OM110378   0.647   7.596   9.056  0.0000  0.0000  0.0000
10379OM     OM110379   0.800   7.633   9.268  0.0000  0.0000  0.0000
10380OM     OM110380   0.550   7.682   9.293  0.0000  0.0000  0.0000
10381OM     OM110381   6.378   0.734   9.057  0.0000  0.0000  0.0000
10382OM     OM110382   6.590   0.589   9.030  0.0000  0.0000  0.0000
10383OM     OM110383   6.661   5.948   0.239  0.0000  0.0000  0.0000
10384OM     OM110384   4.315   1.214   9.511  0.0000  0.0000  0.0000
10385OM     OM110385   2.738   4.229   8.338  0.0000  0.0000  0.0000
10386OM     OM110386   2.801   4.098   8.558  0.0000  0.0000  0.0000
10387OM     OM110387   5.503   7.243   0.552  0.0000  0.0000  0.0000
10388OM     OM110388   5.536   7.049   0.726  0.0000  0.0000  0.0000
10389OM     OM110389   2.949   2.860   0.016  0.0000  0.0000  0.0000
10390OM     OM110390   3.072   2.777   0.219  0.0000  0.0000  0.0000
10391OM     OM110391   5.347   3.656   9.355  0.0000  0.0000  0.0000
10392OM     OM110392   1.688   5.591   9.234  0.0000  0.0000  0.0000
10393OM     OM110393   1.869   5.572   9.063  0.0000  0.0000  0.0000
10394OM     OM110394   1.627   5.481   9.007  0.0000  0.0000  0.0000
10395OM     OM110395   6.411   5.861   9.345  0.0000  0.0000  0.0000
10396OM     OM110396   4.113   2.853   0.334  0.0000  0.0000  0.0000
10397OM     OM110397   4.793   9.297   8.126  0.0000  0.0000  0.0000
10398OM     OM110398   2.762   6.180   9.173  0.0000  0.0000  0.0000
10399OM     OM110399   1.565   6.175   0.454  0.0000  0.0000  0.0000
10400OM     OM110400   4.636   6.280   8.632  0.0000  0.0000  0.0000
10401OM     OM110401   6.437   2.538   0.154  0.0000  0.0000  0.0000
10402OM     OM110402   0.505   2.296   8.735  0.0000  0.0000  0.0000
10403OM     OM110403   6.109   5.995   8.953  0.0000  0.0000  0.0000
10404OM     OM110404   5.930   5.810   8.927  0.0000  0.0000  0.0000
10405OM     OM110405   0.356   7.332   0.761  0.0000  0.0000  0.0000
10406OM     OM110406   0.517   7.396   0.560  0.0000  0.0000  0.0000
10407OM     OM110407   7.285   7.254   0.934  0.0000  0.0000  0.0000
10408OM     OM110408   7.900   4.327   8.598  0.0000  0.0000  0.0000
10409OM     OM110409   5.431   6.248   8.428  0.0000  0.0000  0.0000
10410OM     OM110410   3.985   1.085   0.809  0.0000  0.0000  0.0000
10411OM     OM110411   4.084   0.572   8.545  0.0000  0.0000  0.0000
10412OM     OM110412   3.523   4.066   0.662  0.0000  0.0000  0.0000
10413OM     OM110413   3.208   3.554   1.283  0.0000  0.0000  0.0000
10414OM     OM110414   3.152   3.315   1.297  0.0000  0.0000  0.0000
10415OM     OM110415   3.870   1.020   1.036  0.0000  0.0000  0.0000
10416OM     OM110416   1.558   6.348   8.630  0.0000  0.0000  0.0000
10417OM     OM110417   1.364   6.530   8.628  0.0000  0.0000  0.0000
10418OM     OM110418   3.981   2.547   0.794  0.0000  0.0000  0.0000
10419OM     OM110419   7.874   4.584   8.553  0.0000  0.0000  0.0000
10420OM     OM110420   7.872   4.483   8.803  0.0000  0.0000  0.0000
10421OM     OM110421   3.262   4.437   9.202  0.0000  0.0000  0.0000
10422OM     OM110422   4.868   6.429   0.835  0.0000  0.0000  0.0000
10423OM     OM110423   0.668   6.981   0.736  0.0000  0.0000  0.0000
10424OM     OM110424   2.239   9.074   8.518  0.0000  0.0000  0.0000
10425OM     OM110425   4.985   3.693   8.409  0.0000  0.0000  0.0000
10426OM     OM110426   2.876   5.766   0.284  0.0000  0.0000  0.0000
10427OM     OM110427   1.200   8.664   8.493  0.0000  0.0000  0.0000
10428OM     OM110428   3.471   1.134   0.161  0.0000  0.0000  0.0000
10429OM     OM110429   3.452   1.026   9.526  0.0000  0.0000  0.0000
10430OM     OM110430   9.258   8.325   9.116  0.0000  0.0000  0.0000
10431OM     OM110431   9.263   8.076   9.033  0.0000  0.0000  0.0000
10432OM     OM110432   3.090   6.615   1.009  0.0000  0.0000  0.0000
10433OM     OM110433   8.230   0.740   8.276  0.0000  0.0000  0.0000
10434OM     OM110434   5.361   3.875   0.198  0.0000  0.0000  0.0000
10435OM     OM110435   6.326   3.279   8.565  0.0000  0.0000  0.0000
10436OM     OM110436   6.185   3.481   8.535  0.0000  0.0000  0.0000
10437OM     OM110437   8.504   5.913   1.302  0.0000  0.0000  0.0000
10438OM     OM110438   8.409   5.875   1.059  0.0000  0.0000  0.0000
10439OM     OM110439   8.268   6.005   1.237  0.0000  0.0000  0.0000
10440OM     OM110440   8.319   5.739   1.264  0.0000  0.0000  0.0000
10441OM     OM110441   5.913   7.978   8.369  0.0000  0.0000  0.0000
10442OM     OM110442   5.716   8.153   8.444  0.0000  0.0000  0.0000
10443OM     OM110443   3.927   6.467   0.858  0.0000  0.0000  0.0000
10444OM     OM110444   2.327   2.715   9.094  0.0000  0.0000  0.0000
10445OM     OM110445   2.501   2.876   9.195  0.0000  0.0000  0.0000
10446OM     OM110446   7.670   9.398   0.855  0.0000  0.0000  0.0000
10447OM     OM110447   2.202   1.571   9.316  0.0000  0.0000  0.0000
10448OM     OM110448   1.038   2.751   8.610  0.0000  0.0000  0.0000
10449OM     OM110449   3.483   0.020   0.885  0.0000  0.0000  0.0000
10450OM     OM110450   3.544   9.415   1.037  0.0000  0.0000  0.0000
10451OM     OM110451   6.851   4.715   0.490  0.0000  0.0000  0.0000
10452OM     OM110452   7.089   4.806   0.586  0.0000  0.0000  0.0000
10453OM     OM110453   7.004   4.554   0.607  0.0000  0.0000  0.0000
10454OM     OM110454   6.773   3.261   0.348  0.0000  0.0000  0.0000
10455OM     OM110455   6.632   3.317   0.129  0.0000  0.0000  0.0000
10456OM     OM110456   0.474   8.134   0.211  0.0000  0.0000  0.0000
10457OM     OM110457   2.154   6.528   8.381  0.0000  0.0000  0.0000
10458OM     OM110458   5.471   2.740   0.148  0.0000  0.0000  0.0000
10459OM     OM110459   5.318   2.780   9.394  0.0000  0.0000  0.0000
10460OM     OM110460   4.214   1.749   0.593  0.0000  0.0000  0.0000
10461OM     OM110461   8.191   6.413   8.472  0.0000  0.0000  0.0000
10462OM     OM110462   8.450   6.463   8.432  0.0000  0.0000  0.0000
10463OM     OM110463   6.308   3.824   1.354  0.0000  0.0000  0.0000
10464OM     OM110464   3.069   1.739   0.630  0.0000  0.0000  0.0000
10465OM     OM110465   4.270   1.559   9.102  0.0000  0.0000  0.0000
10466OM     OM110466   2.861   6.352   8.737  0.0000  0.0000  0.0000
10467OM     OM110467   2.902   6.582   8.622  0.0000  0.0000  0.0000
10468OM     OM110468   8.447   5.678   0.896  0.0000  0.0000  0.0000
10469OM     OM110469   2.864   3.834   0.140  0.0000  0.0000  0.0000
10470OM     OM110470   1.559   7.046   8.604  0.0000  0.0000  0.0000
10471OM     OM110471   4.769   2.621   0.512  0.0000  0.0000  0.0000
10472OM     OM110472   4.526   2.659   0.452  0.0000  0.0000  0.0000
10473OM     OM110473   7.672   0.941   8.820  0.0000  0.0000  0.0000
10474OM     OM110474   7.878   1.100   8.800  0.0000  0.0000  0.0000
10475OM     OM110475   0.942   4.295   1.331  0.0000  0.0000  0.0000
10476OM     OM110476   3.534   2.483   0.333  0.0000  0.0000  0.0000
10477OM     OM110477   4.410   1.841   0.995  0.0000  0.0000  0.0000
10478OM     OM110478   8.812   5.303   0.245  0.0000  0.0000  0.0000
10479OM     OM110479   5.574   0.376   8.571  0.0000  0.0000  0.0000
10480OM     OM110480   5.212   0.223   9.402  0.0000  0.0000  0.0000
10481OM     OM110481   5.295   0.298   9.156  0.0000  0.0000  0.0000
10482OM     OM110482   6.229   8.365   9.481  0.0000  0.0000  0.0000
10483OM     OM110483   2.820   0.048   0.235  0.0000  0.0000  0.0000
10484OM     OM110484   8.522   8.002   9.411  0.0000  0.0000  0.0000
10485OM     OM110485   7.352   7.045   0.796  0.0000  0.0000  0.0000
10486OM     OM110486   1.485   4.622   0.362  0.0000  0.0000  0.0000
10487OM     OM110487   5.192   4.836   8.704  0.0000  0.0000  0.0000
10488OM     OM110488   5.260   5.009   8.512  0.0000  0.0000  0.0000
10489OM     OM110489   5.850   2.134   9.223  0.0000  0.0000  0.0000
10490OM     OM110490   5.979   1.908   9.218  0.0000  0.0000  0.0000
10491OM     OM110491   7.821   4.424   1.105  0.0000  0.0000  0.0000
10492OM     OM110492   7.360   6.303   1.039  0.0000  0.0000  0.0000
10493OM     OM110493   0.560   4.338   9.286  0.0000  0.0000  0.0000
10494OM     OM110494   8.056   2.199   9.218  0.0000  0.0000  0.0000
10495OM     OM110495   7.334   3.867   1.167  0.0000  0.0000  0.0000
10496OM     OM110496   8.965   1.999   0.449  0.0000  0.0000  0.0000
10497OM     OM110497   7.273   2.006   0.780  0.0000  0.0000  0.0000
10498OM     OM110498   2.762   0.141   0.013  0.0000  0.0000  0.0000
10499OM     OM110499   3.534   1.361   0.055  0.0000  0.0000  0.0000
10500OM     OM110500   0.582   3.341   8.293  0.0000  0.0000  0.0000
10501OM     OM110501   8.874   0.179   0.232  0.0000  0.0000  0.0000
10502OM     OM110502   9.101   2.227   0.938  0.0000  0.0000  0.0000
10503OM     OM110503   8.906   2.178   0.753  0.0000  0.0000  0.0000
10504OM     OM110504   4.552   5.263   0.463  0.0000  0.0000  0.0000
10505OM     OM110505   9.062   2.686   0.748  0.0000  0.0000  0.0000
10506OM     OM110506   9.230   2.581   0.903  0.0000  0.0000  0.0000
10507OM     OM110507   4.762   3.102   0.738  0.0000  0.0000  0.0000
10508OM     OM110508   7.875   4.996   1.163  0.0000  0.0000  0.0000
10509OM     OM110509   1.714   6.253   0.089  0.0000  0.0000  0.0000
10510OM     OM110510   1.874   6.037   0.091  0.0000  0.0000  0.0000
10511OM     OM110511   1.871   6.198   9.490  0.0000  0.0000  0.0000
10512OM     OM110512   4.040   2.108   0.782  0.0000  0.0000  0.0000
10513OM     OM110513   3.179   3.125   1.109  0.0000  0.0000  0.0000
10514OM     OM110514   3.120   2.854   1.088  0.0000  0.0000  0.0000
10515OM     OM110515   6.298   2.759   1.106  0.0000  0.0000  0.0000
10516OM     OM110516   6.560   2.818   1.063  0.0000  0.0000  0.0000
10517OM     OM110517   6.365   7.928   0.964  0.0000  0.0000  0.0000
10518OM     OM110518   6.729   7.760   0.725  0.0000  0.0000  0.0000
10519OM     OM110519   6.716   0.795   9.115  0.0000  0.0000  0.0000
10520OM     OM110520   1.235   4.921   8.877  0.0000  0.0000  0.0000
10521OM     OM110521   7.555   0.501   9.036  0.0000  0.0000  0.0000
10522OM     OM110522   2.573   6.239   8.999  0.0000  0.0000  0.0000
10523OM     OM110523   2.813   6.182   8.919  0.0000  0.0000  0.0000
10524OM     OM110524   2.131   1.421   9.526  0.0000  0.0000  0.0000
10525OM     OM110525   2.376   1.422   9.436  0.0000  0.0000  0.0000
10526OM     OM110526   1.701   7.036   9.033  0.0000  0.0000  0.0000
10527OM     OM110527   0.718   2.407   0.716  0.0000  0.0000  0.0000
10528OM     OM110528   4.424   9.149   0.438  0.0000  0.0000  0.0000
10529OM     OM110529   6.412   8.544   9.515  0.0000  0.0000  0.0000
10530OM     OM110530   3.026   5.032   8.855  0.0000  0.0000  0.0000
10531OM     OM110531   4.282   0.372   0.865  0.0000  0.0000  0.0000
10532OM     OM110532   4.437   0.316   1.058  0.0000  0.0000  0.0000
10533OM     OM110533   5.024   8.539   1.060  0.0000  0.0000  0.0000
10534OM     OM110534   8.004   5.091   8.780  0.0000  0.0000  0.0000
10535OM     OM110535   8.157   5.307   8.789  0.0000  0.0000  0.0000
10536OM     OM110536   4.195   9.379   8.488  0.0000  0.0000  0.0000
10537OM     OM110537   4.668   1.544   8.679  0.0000  0.0000  0.0000
10538OM     OM110538   7.309   6.819   8.640  0.0000  0.0000  0.0000
10539OM     OM110539   6.125   0.810   9.081  0.0000  0.0000  0.0000
10540OM     OM110540   6.595   4.266   1.006  0.0000  0.0000  0.0000
10541OM     OM110541   1.795   2.875   9.272  0.0000  0.0000  0.0000
10542OM     OM110542   1.740   3.071   9.427  0.0000  0.0000  0.0000
10543OM     OM110543   3.335   8.673   0.780  0.0000  0.0000  0.0000
10544OM     OM110544   6.761   2.756   1.214  0.0000  0.0000  0.0000
10545OM     OM110545   7.378   0.269   8.403  0.0000  0.0000  0.0000
10546OM     OM110546   3.797   1.750   8.963  0.0000  0.0000  0.0000
10547OM     OM110547   3.767   2.014   8.976  0.0000  0.0000  0.0000
10548OM     OM110548   8.723   2.051   0.623  0.0000  0.0000  0.0000
10549OM     OM110549   8.021   6.222   8.414  0.0000  0.0000  0.0000
10550OM     OM110550   9.005   8.921   1.265  0.0000  0.0000  0.0000
10551OM     OM110551   9.204   9.107   1.291  0.0000  0.0000  0.0000
10552OM     OM110552   9.008   9.137   1.122  0.0000  0.0000  0.0000
10553OM     OM110553   6.225   4.125   0.392  0.0000  0.0000  0.0000
10554OM     OM110554   5.152   3.129   8.531  0.0000  0.0000  0.0000
10555OM     OM110555   5.360   3.135   8.403  0.0000  0.0000  0.0000
10556OM     OM110556   7.371   0.858   1.141  0.0000  0.0000  0.0000
10557OM     OM110557   7.524   0.794   0.938  0.0000  0.0000  0.0000
10558OM     OM110558   7.409   0.608   1.077  0.0000  0.0000  0.0000
10559OM     OM110559   0.385   7.671   9.503  0.0000  0.0000  0.0000
10560OM     OM110560   1.555   0.159   8.300  0.0000  0.0000  0.0000
10561OM     OM110561   1.702   0.366   8.349  0.0000  0.0000  0.0000
10562OM     OM110562   4.486   4.375   9.119  0.0000  0.0000  0.0000
10563OM     OM110563   4.705   4.423   8.988  0.0000  0.0000  0.0000
10564OM     OM110564   4.711   4.270   9.203  0.0000  0.0000  0.0000
10565OM     OM110565   4.675   2.200   0.253  0.0000  0.0000  0.0000
10566OM     OM110566   1.992   8.398   8.892  0.0000  0.0000  0.0000
10567OM     OM110567   3.205   2.507   1.219  0.0000  0.0000  0.0000
10568OM     OM110568   2.493   3.750   9.061  0.0000  0.0000  0.0000
10569OM     OM110569   4.094   6.653   8.340  0.0000  0.0000  0.0000
10570OM     OM110570   3.832   6.606   8.350  0.0000  0.0000  0.0000
10571OM     OM110571   9.475   4.046   9.305  0.0000  0.0000  0.0000
10572OM     OM110572   4.990   8.769   1.201  0.0000  0.0000  0.0000
10573OM     OM110573   9.435   2.372   8.813  0.0000  0.0000  0.0000
10574OM     OM110574   9.279   2.380   1.045  0.0000  0.0000  0.0000
10575OM     OM110575   5.751   6.996   9.185  0.0000  0.0000  0.0000
10576OM     OM110576   5.659   6.836   9.367  0.0000  0.0000  0.0000
10577OM     OM110577   5.847   7.014   9.423  0.0000  0.0000  0.0000
10578OM     OM110578   0.163   4.507   0.179  0.0000  0.0000  0.0000
10579OM     OM110579   0.720   7.804   1.177  0.0000  0.0000  0.0000
10580OM     OM110580   0.598   7.875   0.949  0.0000  0.0000  0.0000
10581OM     OM110581   2.385   5.985   1.262  0.0000  0.0000  0.0000
10582OM     OM110582   2.191   5.831   1.321  0.0000  0.0000  0.0000
10583OM     OM110583   9.216   2.165   1.178  0.0000  0.0000  0.0000
10584OM     OM110584   9.603   0.575   0.575  0.0000  0.0000  0.0000
10585OM     OM110585   0.096   0.441   0.777  0.0000  0.0000  0.0000
10586OM     OM110586   6.146   6.606   1.013  0.0000  0.0000  0.0000
10587OM     OM110587   0.534   8.914   1.341  0.0000  0.0000  0.0000
10588OM     OM110588   6.097   4.264   8.645  0.0000  0.0000  0.0000
10589OM     OM110589   8.454   6.605   0.062  0.0000  0.0000  0.0000
10590OM     OM110590   9.278   5.274   0.767  0.0000  0.0000  0.0000
10591OM     OM110591   6.031   2.731   1.092  0.0000  0.0000  0.0000
10592OM     OM110592   6.410   1.319   1.294  0.0000  0.0000  0.0000
10593OM     OM110593   6.367   1.565   1.384  0.0000  0.0000  0.0000
10594OM     OM110594   3.181   2.977   9.588  0.0000  0.0000  0.0000
10595OM     OM110595   7.148   0.622   9.238  0.0000  0.0000  0.0000
10596OM     OM110596   3.199   5.213   8.823  0.0000  0.0000  0.0000
10597OM     OM110597   7.695   5.094   0.989  0.0000  0.0000  0.0000
10598OM     OM110598   8.652   5.501   0.289  0.0000  0.0000  0.0000
10599OM     OM110599   2.558   4.699   8.650  0.0000  0.0000  0.0000
10600OM     OM110600   9.051   0.754   0.170  0.0000  0.0000  0.0000
10601OM     OM110601   9.213   0.730   9.582  0.0000  0.0000  0.0000
10602OM     OM110602   2.231   7.561   0.948  0.0000  0.0000  0.0000
10603OM     OM110603   2.895   3.057   8.526  0.0000  0.0000  0.0000
10604OM     OM110604   3.031   3.211   8.700  0.0000  0.0000  0.0000
10605OM     OM110605   1.279   6.763   9.072  0.0000  0.0000  0.0000
10606OM     OM110606   9.052   5.859   0.883  0.0000  0.0000  0.0000
10607OM     OM110607   5.607   8.372   8.372  0.0000  0.0000  0.0000
10608OM     OM110608   5.633   2.590   8.722  0.0000  0.0000  0.0000
10609OM     OM110609   5.402   2.700   8.696  0.0000  0.0000  0.0000
10610OM     OM110610   5.769   2.761   1.042  0.0000  0.0000  0.0000
10611OM     OM110611   5.866   2.559   1.190  0.0000  0.0000  0.0000
10612OM     OM110612   0.039   0.264   0.954  0.0000  0.0000  0.0000
10613OM     OM110613   0.281   0.286   0.854  0.0000  0.0000  0.0000
10614OM     OM110614   6.276   3.023   0.200  0.0000  0.0000  0.0000
10615OM     OM110615   8.276   5.513   9.334  0.0000  0.0000  0.0000
10616OM     OM110616   4.880   8.929   9.068  0.0000  0.0000  0.0000
10617OM     OM110617   6.821   6.455   0.535  0.0000  0.0000  0.0000
10618OM     OM110618   6.721   6.478   0.766  0.0000  0.0000  0.0000
10619OM     OM110619   9.346   8.440   9.329  0.0000  0.0000  0.0000
10620OM     OM110620   3.931   5.565   0.056  0.0000  0.0000  0.0000
10621OM     OM110621   4.057   5.673   0.266  0.0000  0.0000  0.0000
10622OM     OM110622   6.343   6.162   1.063  0.0000  0.0000  0.0000
10623OM     OM110623   6.959   3.238   8.945  0.0000  0.0000  0.0000
10624OM     OM110624   6.761   3.404   8.961  0.0000  0.0000  0.0000
10625OM     OM110625   7.025   5.544   8.574  0.0000  0.0000  0.0000
10626OM     OM110626   7.114   5.698   8.195  0.0000  0.0000  0.0000
10627OM     OM110627   0.549   0.902   0.887  0.0000  0.0000  0.0000
10628OM     OM110628   1.411   1.346   0.621  0.0000  0.0000  0.0000
10629OM     OM110629   1.410   1.719   0.971  0.0000  0.0000  0.0000
10630OM     OM110630   1.542   1.772   0.757  0.0000  0.0000  0.0000
10631OM     OM110631   0.279   4.899   9.511  0.0000  0.0000  0.0000
10632OM     OM110632   3.144   6.638   1.270  0.0000  0.0000  0.0000
10633OM     OM110633   7.905   7.507   0.195  0.0000  0.0000  0.0000
10634OM     OM110634   0.332   0.805   1.004  0.0000  0.0000  0.0000
10635OM     OM110635   7.010   4.573   8.769  0.0000  0.0000  0.0000
10636OM     OM110636   6.945   4.380   8.919  0.0000  0.0000  0.0000
10637OM     OM110637   6.036   4.783   0.306  0.0000  0.0000  0.0000
10638OM     OM110638   0.441   3.240   8.860  0.0000  0.0000  0.0000
10639OM     OM110639   5.363   7.758   0.092  0.0000  0.0000  0.0000
10640OM     OM110640   5.459   7.591   9.524  0.0000  0.0000  0.0000
10641OM     OM110641   5.586   7.818   9.556  0.0000  0.0000  0.0000
10642OM     OM110642   5.359   7.822   9.449  0.0000  0.0000  0.0000
10643OM     OM110643   3.980   9.437   0.842  0.0000  0.0000  0.0000
10644OM     OM110644   2.717   3.714   0.897  0.0000  0.0000  0.0000
10645OM     OM110645   7.515   9.085   9.060  0.0000  0.0000  0.0000
10646OM     OM110646   7.336   8.881   9.060  0.0000  0.0000  0.0000
10647OM     OM110647   6.762   3.215   9.131  0.0000  0.0000  0.0000
10648OM     OM110648   0.371   3.027   0.843  0.0000  0.0000  0.0000
10649OM     OM110649   2.147   2.570   8.554  0.0000  0.0000  0.0000
10650OM     OM110650   7.985   3.475   9.319  0.0000  0.0000  0.0000
10651OM     OM110651   2.258   8.679   0.329  0.0000  0.0000  0.0000
10652OM     OM110652   2.050   8.539   0.218  0.0000  0.0000  0.0000
10653OM     OM110653   8.338   1.604   8.588  0.0000  0.0000  0.0000
10654OM     OM110654   3.112   3.200   8.957  0.0000  0.0000  0.0000
10655OM     OM110655   4.943   5.207   8.769  0.0000  0.0000  0.0000
10656OM     OM110656   4.818   5.088   8.580  0.0000  0.0000  0.0000
10657OM     OM110657   4.964   4.947   8.763  0.0000  0.0000  0.0000
10658OM     OM110658   7.121   6.767   8.472  0.0000  0.0000  0.0000
10659OM     OM110659   4.698   3.357   8.764  0.0000  0.0000  0.0000
10660OM     OM110660   0.903   7.943   8.990  0.0000  0.0000  0.0000
10661OM     OM110661   0.710   7.830   9.146  0.0000  0.0000  0.0000
10662OM     OM110662   6.312   6.435   1.079  0.0000  0.0000  0.0000
10663OM     OM110663   4.365   1.908   0.741  0.0000  0.0000  0.0000
10664OM     OM110664   4.587   2.569   9.227  0.0000  0.0000  0.0000
10665OM     OM110665   2.425   6.064   9.089  0.0000  0.0000  0.0000
10666OM     OM110666   1.310   7.541   8.735  0.0000  0.0000  0.0000
10667OM     OM110667   5.734   5.659   8.867  0.0000  0.0000  0.0000
10668OM     OM110668   4.908   5.655   0.437  0.0000  0.0000  0.0000
10669OM     OM110669   8.634   5.114   0.944  0.0000  0.0000  0.0000
10670OM     OM110670   8.752   5.067   1.182  0.0000  0.0000  0.0000
10671OM     OM110671   8.619   5.274   1.170  0.0000  0.0000  0.0000
10672OM     OM110672   3.181   1.142   0.428  0.0000  0.0000  0.0000
10673OM     OM110673   7.155   9.538   9.235  0.0000  0.0000  0.0000
10674OM     OM110674   1.026   4.138   8.486  0.0000  0.0000  0.0000
10675OM     OM110675   3.294   6.321   8.775  0.0000  0.0000  0.0000
10676OM     OM110676   3.747   2.136   0.128  0.0000  0.0000  0.0000
10677OM     OM110677   1.159   6.642   8.768  0.0000  0.0000  0.0000
10678OM     OM110678   8.111   7.221   1.098  0.0000  0.0000  0.0000
10679OM     OM110679   7.975   7.442   1.072  0.0000  0.0000  0.0000
10680OM     OM110680   5.350   5.463   0.456  0.0000  0.0000  0.0000
10681OM     OM110681   5.510   6.628   9.446  0.0000  0.0000  0.0000
10682OM     OM110682   8.537   1.264   9.079  0.0000  0.0000  0.0000
10683OM     OM110683   1.860   4.225   0.472  0.0000  0.0000  0.0000
10684OM     OM110684   7.148   2.936   8.697  0.0000  0.0000  0.0000
10685OM     OM110685   5.385   6.916   1.194  0.0000  0.0000  0.0000
10686OM     OM110686   5.377   6.682   1.303  0.0000  0.0000  0.0000
10687OM     OM110687   9.404   7.636   8.667  0.0000  0.0000  0.0000
10688OM     OM110688   4.659   7.982   1.014  0.0000  0.0000  0.0000
10689OM     OM110689   4.566   7.870   0.775  0.0000  0.0000  0.0000
10690OM     OM110690   4.652   7.730   0.964  0.0000  0.0000  0.0000
10691OM     OM110691   6.187   0.994   0.238  0.0000  0.0000  0.0000
10692OM     OM110692   6.457   7.186   9.000  0.0000  0.0000  0.0000
10693OM     OM110693   6.646   7.354   8.994  0.0000  0.0000  0.0000
10694OM     OM110694   5.314   6.035   8.326  0.0000  0.0000  0.0000
10695OM     OM110695   4.991   0.189   0.538  0.0000  0.0000  0.0000
10696OM     OM110696   4.473   1.307   0.084  0.0000  0.0000  0.0000
10697OM     OM110697   2.480   5.452   0.176  0.0000  0.0000  0.0000
10698OM     OM110698   5.287   3.030   9.329  0.0000  0.0000  0.0000
10699OM     OM110699   1.380   7.397   0.311  0.0000  0.0000  0.0000
10700OM     OM110700   1.510   7.350   0.090  0.0000  0.0000  0.0000
10701OM     OM110701   4.455   8.580   8.327  0.0000  0.0000  0.0000
10702OM     OM110702   7.719   7.658   9.428  0.0000  0.0000  0.0000
10703OM     OM110703   4.559   3.133   8.824  0.0000  0.0000  0.0000
10704OM     OM110704   0.479   1.597   9.520  0.0000  0.0000  0.0000
10705OM     OM110705   5.327   0.792   1.382  0.0000  0.0000  0.0000
10706OM     OM110706   1.688   3.168   0.048  0.0000  0.0000  0.0000
10707OM     OM110707   6.177   2.167   9.532  0.0000  0.0000  0.0000
10708OM     OM110708   6.132   2.029   0.137  0.0000  0.0000  0.0000
10709OM     OM110709   8.404   6.073   8.931  0.0000  0.0000  0.0000
10710OM     OM110710   3.395   7.445   1.076  0.0000  0.0000  0.0000
10711OM     OM110711   3.368   7.423   1.335  0.0000  0.0000  0.0000
10712OM     OM110712   0.116   8.783   9.590  0.0000  0.0000  0.0000
10713OM     OM110713   0.004   8.559   9.515  0.0000  0.0000  0.0000
10714OM     OM110714   1.113   1.956   0.914  0.0000  0.0000  0.0000
10715OM     OM110715   1.188   2.041   0.668  0.0000  0.0000  0.0000
10716OM     OM110716   7.911   3.625   9.108  0.0000  0.0000  0.0000
10717OM     OM110717   8.572   3.603   9.237  0.0000  0.0000  0.0000
10718OM     OM110718   3.533   1.308   8.719  0.0000  0.0000  0.0000
10719OM     OM110719   1.110   7.051   0.380  0.0000  0.0000  0.0000
10720OM     OM110720   4.498   2.332   9.327  0.0000  0.0000  0.0000
10721OM     OM110721   7.598   7.084   0.285  0.0000  0.0000  0.0000
10722OM     OM110722   4.019   5.436   0.669  0.0000  0.0000  0.0000
10723OM     OM110723   4.099   5.643   0.520  0.0000  0.0000  0.0000
10724OM     OM110724   2.122   2.729   8.939  0.0000  0.0000  0.0000
10725OM     OM110725   2.007   2.772   9.168  0.0000  0.0000  0.0000
10726OM     OM110726   8.435   9.405   9.299  0.0000  0.0000  0.0000
10727OM     OM110727   6.589   9.053   0.515  0.0000  0.0000  0.0000
10728OM     OM110728   6.265   8.820   0.494  0.0000  0.0000  0.0000
10729OM     OM110729   3.342   4.027   0.483  0.0000  0.0000  0.0000
10730OM     OM110730   3.017   3.085   9.165  0.0000  0.0000  0.0000
10731OM     OM110731   1.156   5.551   0.852  0.0000  0.0000  0.0000
10732OM     OM110732   2.069   7.275   9.097  0.0000  0.0000  0.0000
10733OM     OM110733   7.906   9.407   0.962  0.0000  0.0000  0.0000
10734OM     OM110734   7.981   9.545   0.752  0.0000  0.0000  0.0000
10735OM     OM110735   0.525   7.228   9.318  0.0000  0.0000  0.0000
10736OM     OM110736   4.725   0.791   8.391  0.0000  0.0000  0.0000
10737OM     OM110737   2.210   2.422   0.817  0.0000  0.0000  0.0000
10738OM     OM110738   2.288   1.963   0.663  0.0000  0.0000  0.0000
10739OM     OM110739   2.387   8.536   9.542  0.0000  0.0000  0.0000
10740OM     OM110740   2.170   5.876   8.679  0.0000  0.0000  0.0000
10741OM     OM110741   3.071   6.477   8.799  0.0000  0.0000  0.0000
10742OM     OM110742   9.068   5.659   1.060  0.0000  0.0000  0.0000
10743OM     OM110743   8.857   5.563   1.175  0.0000  0.0000  0.0000
10744OM     OM110744   6.515   3.538   1.021  0.0000  0.0000  0.0000
10745OM     OM110745   7.737   7.468   9.601  0.0000  0.0000  0.0000
10746OM     OM110746   7.710   7.301   0.183  0.0000  0.0000  0.0000
10747OM     OM110747   7.014   7.064   1.213  0.0000  0.0000  0.0000
10748OM     OM110748   2.950   8.744   0.072  0.0000  0.0000  0.0000
10749OM     OM110749   5.433   2.964   9.535  0.0000  0.0000  0.0000
10750OM     OM110750   5.689   4.640   9.394  0.0000  0.0000  0.0000
10751OM     OM110751   8.839   8.225   0.291  0.0000  0.0000  0.0000
10752OM     OM110752   5.526   3.505   1.063  0.0000  0.0000  0.0000
10753OM     OM110753   9.570   1.124   8.963  0.0000  0.0000  0.0000
10754OM     OM110754   9.569   1.018   9.189  0.0000  0.0000  0.0000
10755OM     OM110755   7.174   7.893   0.998  0.0000  0.0000  0.0000
10756OM     OM110756   2.877   8.151   1.219  0.0000  0.0000  0.0000
10757OM     OM110757   2.633   8.199   1.142  0.0000  0.0000  0.0000
10758OM     OM110758   5.140   4.255   1.202  0.0000  0.0000  0.0000
10759OM     OM110759   7.375   3.162   8.497  0.0000  0.0000  0.0000
10760OM     OM110760   5.006   6.234   0.719  0.0000  0.0000  0.0000
10761OM     OM110761   5.948   4.529   9.375  0.0000  0.0000  0.0000
10762OM     OM110762   8.213   2.166   8.910  0.0000  0.0000  0.0000
10763OM     OM110763   3.920   5.815   0.435  0.0000  0.0000  0.0000
10764OM     OM110764   0.562   9.604   8.432  0.0000  0.0000  0.0000
10765OM     OM110765   0.607   0.086   8.684  0.0000  0.0000  0.0000
10766OM     OM110766   0.698   0.216   8.468  0.0000  0.0000  0.0000
10767OM     OM110767   3.370   0.369   0.263  0.0000  0.0000  0.0000
10768OM     OM110768   6.530   8.127   0.938  0.0000  0.0000  0.0000
10769OM     OM110769   3.560   0.519   0.363  0.0000  0.0000  0.0000
10770OM     OM110770   5.030   5.453   8.754  0.0000  0.0000  0.0000
10771OM     OM110771   7.228   1.329   0.437  0.0000  0.0000  0.0000
10772OM     OM110772   2.294   4.869   0.516  0.0000  0.0000  0.0000
10773OM     OM110773   0.111   7.380   0.814  0.0000  0.0000  0.0000
10774OM     OM110774   9.057   7.272   0.956  0.0000  0.0000  0.0000
10775OM     OM110775   2.941   1.538   0.416  0.0000  0.0000  0.0000
10776OM     OM110776   4.478   7.624   1.144  0.0000  0.0000  0.0000
10777OM     OM110777   4.695   7.498   1.076  0.0000  0.0000  0.0000
10778OM     OM110778   6.616   8.621   9.368  0.0000  0.0000  0.0000
10779OM     OM110779   6.304   6.160   8.956  0.0000  0.0000  0.0000
10780OM     OM110780   6.389   6.083   9.190  0.0000  0.0000  0.0000
10781OM     OM110781   0.164   2.653   0.689  0.0000  0.0000  0.0000
10782OM     OM110782   0.144   5.814   9.218  0.0000  0.0000  0.0000
10783OM     OM110783   0.254   5.763   8.989  0.0000  0.0000  0.0000
10784OM     OM110784   8.737   6.884   1.173  0.0000  0.0000  0.0000
10785OM     OM110785   5.776   3.480   0.969  0.0000  0.0000  0.0000
10786OM     OM110786   5.697   3.390   1.207  0.0000  0.0000  0.0000
10787OM     OM110787   0.158   5.791   9.477  0.0000  0.0000  0.0000
10788OM     OM110788   3.899   7.206   0.553  0.0000  0.0000  0.0000
10789OM     OM110789   0.485   5.882   8.961  0.0000  0.0000  0.0000
10790OM     OM110790   9.582   0.768   1.360  0.0000  0.0000  0.0000
10791OM     OM110791   4.337   3.746   9.197  0.0000  0.0000  0.0000
10792OM     OM110792   5.588   5.854   0.582  0.0000  0.0000  0.0000
10793OM     OM110793   5.480   6.081   0.613  0.0000  0.0000  0.0000
10794OM     OM110794   6.028   7.346   0.418  0.0000  0.0000  0.0000
10795OM     OM110795   1.368   7.100   1.296  0.0000  0.0000  0.0000
10796OM     OM110796   1.741   6.317   0.333  0.0000  0.0000  0.0000
10797OM     OM110797   2.246   0.301   9.346  0.0000  0.0000  0.0000
10798OM     OM110798   2.109   0.538   9.348  0.0000  0.0000  0.0000
10799OM     OM110799   7.388   6.215   0.217  0.0000  0.0000  0.0000
10800OM     OM110800   0.458   2.530   8.630  0.0000  0.0000  0.0000
10801OM     OM110801   0.354   2.702   8.472  0.0000  0.0000  0.0000
10802OM     OM110802   2.872   5.555   8.309  0.0000  0.0000  0.0000
10803OM     OM110803   4.099   9.234   0.074  0.0000  0.0000  0.0000
10804OM     OM110804   0.331   9.475   1.101  0.0000  0.0000  0.0000
10805OM     OM110805   9.200   5.599   9.551  0.0000  0.0000  0.0000
10806OM     OM110806   9.340   4.635   0.865  0.0000  0.0000  0.0000
10807OM     OM110807   7.095   5.496   8.818  0.0000  0.0000  0.0000
10808OM     OM110808   4.777   6.381   8.434  0.0000  0.0000  0.0000
10809OM     OM110809   7.399   0.503   8.827  0.0000  0.0000  0.0000
10810OM     OM110810   7.560   0.704   8.875  0.0000  0.0000  0.0000
10811OM     OM110811   1.333   2.625   0.998  0.0000  0.0000  0.0000
10812OM     OM110812   0.887   2.662   8.805  0.0000  0.0000  0.0000
10813OM     OM110813   0.947   5.571   8.545  0.0000  0.0000  0.0000
10814OM     OM110814   6.150   7.953   8.472  0.0000  0.0000  0.0000
10815OM     OM110815   8.280   0.502   8.372  0.0000  0.0000  0.0000
10816OM     OM110816   1.336   3.315   8.725  0.0000  0.0000  0.0000
10817OM     OM110817   8.269   2.634   8.766  0.0000  0.0000  0.0000
10818OM     OM110818   8.194   2.395   8.796  0.0000  0.0000  0.0000
10819OM     OM110819   8.154   6.685   8.730  0.0000  0.0000  0.0000
10820OM     OM110820   1.132   8.560   8.712  0.0000  0.0000  0.0000
10821OM     OM110821   2.030   8.703   8.212  0.0000  0.0000  0.0000
10822OM     OM110822   2.129   8.865   8.404  0.0000  0.0000  0.0000
10823OM     OM110823   6.554   3.943   0.725  0.0000  0.0000  0.0000
10824OM     OM110824   6.551   3.685   0.808  0.0000  0.0000  0.0000
10825OM     OM110825   5.374   0.456   8.721  0.0000  0.0000  0.0000
10826OM     OM110826   4.664   0.943   0.807  0.0000  0.0000  0.0000
10827OM     OM110827   0.714   5.698   8.540  0.0000  0.0000  0.0000
10828OM     OM110828   3.128   5.526   8.311  0.0000  0.0000  0.0000
10829OM     OM110829   4.148   7.107   1.172  0.0000  0.0000  0.0000
10830OM     OM110830   8.159   2.776   9.602  0.0000  0.0000  0.0000
10831OM     OM110831   8.546   6.465   8.669  0.0000  0.0000  0.0000
10832OM     OM110832   5.938   3.655   0.866  0.0000  0.0000  0.0000
10833OM     OM110833   8.058   4.360   1.032  0.0000  0.0000  0.0000
10834OM     OM110834   3.755   5.823   8.713  0.0000  0.0000  0.0000
10835OM     OM110835   3.838   5.809   8.959  0.0000  0.0000  0.0000
10836OM     OM110836   6.070   3.254   8.503  0.0000  0.0000  0.0000
10837OM     OM110837   5.820   3.180   8.529  0.0000  0.0000  0.0000
10838OM     OM110838   4.692   9.520   8.565  0.0000  0.0000  0.0000
10839OM     OM110839   4.617   9.506   8.916  0.0000  0.0000  0.0000
10840OM     OM110840   8.350   8.635   1.182  0.0000  0.0000  0.0000
10841OM     OM110841   8.200   8.769   1.347  0.0000  0.0000  0.0000
10842OM     OM110842   4.557   2.197   0.482  0.0000  0.0000  0.0000
10843OM     OM110843   4.724   2.368   0.594  0.0000  0.0000  0.0000
10844OM     OM110844   6.261   2.207   9.287  0.0000  0.0000  0.0000
10845OM     OM110845   5.156   1.394   0.242  0.0000  0.0000  0.0000
10846OM     OM110846   5.334   1.507   0.399  0.0000  0.0000  0.0000
10847OM     OM110847   2.543   9.399   9.449  0.0000  0.0000  0.0000
10848OM     OM110848   3.375   7.604   0.880  0.0000  0.0000  0.0000
10849OM     OM110849   4.944   0.101   0.787  0.0000  0.0000  0.0000
10850OM     OM110850   3.779   5.216   9.403  0.0000  0.0000  0.0000
10851OM     OM110851   3.740   5.402   9.583  0.0000  0.0000  0.0000
10852OM     OM110852   6.986   6.576   8.349  0.0000  0.0000  0.0000
10853OM     OM110853   4.642   7.743   0.561  0.0000  0.0000  0.0000
10854OM     OM110854   3.911   6.212   9.207  0.0000  0.0000  0.0000
10855OM     OM110855   8.751   3.893   0.966  0.0000  0.0000  0.0000
10856OM     OM110856   0.717   4.536   0.933  0.0000  0.0000  0.0000
10857OM     OM110857   0.790   4.421   1.154  0.0000  0.0000  0.0000
10858OM     OM110858   4.223   0.509   8.343  0.0000  0.0000  0.0000
10859OM     OM110859   9.366   1.111   0.280  0.0000  0.0000  0.0000
10860OM     OM110860   2.596   4.987   9.561  0.0000  0.0000  0.0000
10861OM     OM110861   2.495   4.791   0.107  0.0000  0.0000  0.0000
10862OM     OM110862   5.426   3.435   8.749  0.0000  0.0000  0.0000
10863OM     OM110863   5.270   6.563   9.371  0.0000  0.0000  0.0000
10864OM     OM110864   3.008   0.357   1.224  0.0000  0.0000  0.0000
10865OM     OM110865   0.799   8.775   9.298  0.0000  0.0000  0.0000
10866OM     OM110866   0.381   6.282   1.257  0.0000  0.0000  0.0000
10867OM     OM110867   3.135   0.128   1.183  0.0000  0.0000  0.0000
10868OM     OM110868   4.264   9.439   1.281  0.0000  0.0000  0.0000
10869OM     OM110869   4.511   9.348   1.341  0.0000  0.0000  0.0000
10870OM     OM110870   7.840   8.306   8.584  0.0000  0.0000  0.0000
10871OM     OM110871   7.794   5.118   8.931  0.0000  0.0000  0.0000
10872OM     OM110872   7.790   4.695   8.912  0.0000  0.0000  0.0000
10873OM     OM110873   8.709   5.761   1.267  0.0000  0.0000  0.0000
10874OM     OM110874   8.693   5.995   1.154  0.0000  0.0000  0.0000
10875OM     OM110875   9.072   7.457   0.758  0.0000  0.0000  0.0000
10876OM     OM110876   9.432   7.376   8.651  0.0000  0.0000  0.0000
10877OM     OM110877   5.598   3.076   0.108  0.0000  0.0000  0.0000
10878OM     OM110878   7.173   5.017   0.248  0.0000  0.0000  0.0000
10879OM     OM110879   7.265   4.966   0.493  0.0000  0.0000  0.0000
10880OM     OM110880   0.559   2.281   0.142  0.0000  0.0000  0.0000
10881OM     OM110881   8.801   3.561   0.515  0.0000  0.0000  0.0000
10882OM     OM110882   8.032   5.655   0.361  0.0000  0.0000  0.0000
10883OM     OM110883   5.291   6.899   0.323  0.0000  0.0000  0.0000
10884OM     OM110884   4.887   7.048   0.328  0.0000  0.0000  0.0000
10885OM     OM110885   5.311   7.078   0.508  0.0000  0.0000  0.0000
10886OM     OM110886   3.483   1.547   8.631  0.0000  0.0000  0.0000
10887OM     OM110887   0.935   7.662   1.182  0.0000  0.0000  0.0000
10888OM     OM110888   2.564   3.760   1.115  0.0000  0.0000  0.0000
10889OM     OM110889   9.362   6.996   9.268  0.0000  0.0000  0.0000
10890OM     OM110890   3.409   4.968   0.445  0.0000  0.0000  0.0000
10891OM     OM110891   9.281   6.503   8.453  0.0000  0.0000  0.0000
10892OM     OM110892   1.494   5.268   9.018  0.0000  0.0000  0.0000
10893OM     OM110893   1.381   5.040   9.059  0.0000  0.0000  0.0000
10894OM     OM110894   1.530   5.144   9.249  0.0000  0.0000  0.0000
10895OM     OM110895   2.479   4.753   0.375  0.0000  0.0000  0.0000
10896OM     OM110896   3.416   7.474   8.652  0.0000  0.0000  0.0000
10897OM     OM110897   1.436   2.006   9.575  0.0000  0.0000  0.0000
10898OM     OM110898   7.771   8.082   8.499  0.0000  0.0000  0.0000
10899OM     OM110899   8.042   8.161   8.554  0.0000  0.0000  0.0000
10900OM     OM110900   0.817   8.566   9.147  0.0000  0.0000  0.0000
10901OM     OM110901   3.943   6.429   9.097  0.0000  0.0000  0.0000
10902OM     OM110902   4.250   6.772   8.178  0.0000  0.0000  0.0000
10903OM     OM110903   8.806   4.148   0.964  0.0000  0.0000  0.0000
10904OM     OM110904   6.769   9.244   0.652  0.0000  0.0000  0.0000
10905OM     OM110905   6.709   9.211   0.902  0.0000  0.0000  0.0000
10906OM     OM110906   7.088   3.797   8.411  0.0000  0.0000  0.0000
10907OM     OM110907   3.002   3.954   8.478  0.0000  0.0000  0.0000
10908OM     OM110908   6.923   4.399   0.403  0.0000  0.0000  0.0000
10909OM     OM110909   7.461   6.341   9.127  0.0000  0.0000  0.0000
10910OM     OM110910   7.516   6.292   8.873  0.0000  0.0000  0.0000
10911OM     OM110911   8.402   6.219   1.276  0.0000  0.0000  0.0000
10912OM     OM110912   3.283   9.582   1.038  0.0000  0.0000  0.0000
10913OM     OM110913   9.501   4.052   1.069  0.0000  0.0000  0.0000
10914OM     OM110914   9.535   6.810   9.338  0.0000  0.0000  0.0000
10915OM     OM110915   9.044   1.256   8.739  0.0000  0.0000  0.0000
10916OM     OM110916   5.943   3.794   1.097  0.0000  0.0000  0.0000
10917OM     OM110917   1.433   1.125   0.231  0.0000  0.0000  0.0000
10918OM     OM110918   7.484   4.975   0.881  0.0000  0.0000  0.0000
10919OM     OM110919   1.762   6.770   0.062  0.0000  0.0000  0.0000
10920OM     OM110920   9.297   4.217   1.062  0.0000  0.0000  0.0000
10921OM     OM110921   5.323   8.394   9.082  0.0000  0.0000  0.0000
10922OM     OM110922   5.369   8.592   9.251  0.0000  0.0000  0.0000
10923OM     OM110923   5.488   0.998   1.353  0.0000  0.0000  0.0000
10924OM     OM110924   6.195   4.551   9.254  0.0000  0.0000  0.0000
10925OM     OM110925   0.145   3.078   8.747  0.0000  0.0000  0.0000
10926OM     OM110926   3.627   6.705   8.456  0.0000  0.0000  0.0000
10927OM     OM110927   7.052   4.292   0.597  0.0000  0.0000  0.0000
10928OM     OM110928   3.617   6.865   8.664  0.0000  0.0000  0.0000
10929OM     OM110929   3.752   7.069   8.594  0.0000  0.0000  0.0000
10930OM     OM110930   2.387   8.641   9.304  0.0000  0.0000  0.0000
10931OM     OM110931   8.657   6.726   0.593  0.0000  0.0000  0.0000
10932OM     OM110932   7.440   9.303   1.132  0.0000  0.0000  0.0000
10933OM     OM110933   4.680   5.136   0.272  0.0000  0.0000  0.0000
10934OM     OM110934   8.017   1.392   0.576  0.0000  0.0000  0.0000
10935OM     OM110935   5.451   6.389   9.398  0.0000  0.0000  0.0000
10936OM     OM110936   1.105   2.167   0.451  0.0000  0.0000  0.0000
10937OM     OM110937   8.332   9.548   9.493  0.0000  0.0000  0.0000
10938OM     OM110938   6.434   1.375   0.718  0.0000  0.0000  0.0000
10939OM     OM110939   7.277   2.997   0.912  0.0000  0.0000  0.0000
10940OM     OM110940   9.447   7.725   1.242  0.0000  0.0000  0.0000
10941OM     OM110941   8.979   8.883   8.865  0.0000  0.0000  0.0000
10942OM     OM110942   2.078   6.284   8.427  0.0000  0.0000  0.0000
10943OM     OM110943   5.896   2.589   8.690  0.0000  0.0000  0.0000
10944OM     OM110944   5.890   2.720   8.464  0.0000  0.0000  0.0000
10945OM     OM110945   1.398   2.771   1.202  0.0000  0.0000  0.0000
10946OM     OM110946   1.571   7.973   0.886  0.0000  0.0000  0.0000
10947OM     OM110947   1.776   2.415   0.947  0.0000  0.0000  0.0000
10948OM     OM110948   5.745   2.409   8.584  0.0000  0.0000  0.0000
10949OM     OM110949   1.885   1.992   8.217  0.0000  0.0000  0.0000
10950OM     OM110950   1.681   1.853   8.289  0.0000  0.0000  0.0000
10951OM     OM110951   2.807   5.148   9.550  0.0000  0.0000  0.0000
10952OM     OM110952   2.584   5.235   0.051  0.0000  0.0000  0.0000
10953OM     OM110953   2.230   7.492   0.697  0.0000  0.0000  0.0000
10954OM     OM110954   5.925   1.246   8.549  0.0000  0.0000  0.0000
10955OM     OM110955   8.412   8.098   9.196  0.0000  0.0000  0.0000
10956OM     OM110956   6.862   1.571   0.640  0.0000  0.0000  0.0000
10957OM     OM110957   4.200   7.004   1.414  0.0000  0.0000  0.0000
10958OM     OM110958   2.731   8.591   0.824  0.0000  0.0000  0.0000
10959OM     OM110959   3.908   7.479   8.699  0.0000  0.0000  0.0000
10960OM     OM110960   3.827   7.307   8.524  0.0000  0.0000  0.0000
10961OM     OM110961   3.659   7.398   8.706  0.0000  0.0000  0.0000
10962OM     OM110962   2.803   7.857   8.702  0.0000  0.0000  0.0000
10963OM     OM110963   6.181   4.480   9.495  0.0000  0.0000  0.0000
10964OM     OM110964   8.238   7.020   1.004  0.0000  0.0000  0.0000
10965OM     OM110965   8.336   7.251   0.963  0.0000  0.0000  0.0000
10966OM     OM110966   8.954   1.074   8.903  0.0000  0.0000  0.0000
10967OM     OM110967   3.144   3.854   0.419  0.0000  0.0000  0.0000
10968OM     OM110968   9.533   4.752   0.728  0.0000  0.0000  0.0000
10969OM     OM110969   6.748   3.545   0.901  0.0000  0.0000  0.0000
10970OM     OM110970   5.685   6.009   0.967  0.0000  0.0000  0.0000
10971OM     OM110971   5.490   7.045   0.991  0.0000  0.0000  0.0000
10972OM     OM110972   8.970   8.140   0.811  0.0000  0.0000  0.0000
10973OM     OM110973   5.545   1.229   8.865  0.0000  0.0000  0.0000
10974OM     OM110974   5.338   0.928   8.487  0.0000  0.0000  0.0000
10975OM     OM110975   2.275   4.733   0.225  0.0000  0.0000  0.0000
10976OM     OM110976   6.420   1.143   1.103  0.0000  0.0000  0.0000
10977OM     OM110977   1.873   6.699   0.287  0.0000  0.0000  0.0000
10978OM     OM110978   1.747   6.514   0.150  0.0000  0.0000  0.0000
10979OM     OM110979   8.050   2.344   9.015  0.0000  0.0000  0.0000
10980OM     OM110980   7.796   6.865   0.912  0.0000  0.0000  0.0000
10981OM     OM110981   8.038   6.930   0.855  0.0000  0.0000  0.0000
10982OM     OM110982   2.961   5.541   1.006  0.0000  0.0000  0.0000
10983OM     OM110983   8.386   6.789   0.231  0.0000  0.0000  0.0000
10984OM     OM110984   8.532   7.000   0.201  0.0000  0.0000  0.0000
10985OM     OM110985   8.506   6.894   0.440  0.0000  0.0000  0.0000
10986OM     OM110986   7.497   8.390   0.149  0.0000  0.0000  0.0000
10987OM     OM110987   6.620   6.004   9.287  0.0000  0.0000  0.0000
10988OM     OM110988   8.619   5.511   1.270  0.0000  0.0000  0.0000
10989OM     OM110989   6.679   1.439   0.782  0.0000  0.0000  0.0000
10990OM     OM110990   4.719   5.165   9.455  0.0000  0.0000  0.0000
10991OM     OM110991   6.391   1.818   1.331  0.0000  0.0000  0.0000
10992OM     OM110992   4.169   2.003   0.588  0.0000  0.0000  0.0000
10993OM     OM110993   2.447   1.871   0.483  0.0000  0.0000  0.0000
10994OM     OM110994   6.737   9.207   0.388  0.0000  0.0000  0.0000
10995OM     OM110995   4.189   4.607   8.335  0.0000  0.0000  0.0000
10996OM     OM110996   2.330   3.233   8.688  0.0000  0.0000  0.0000
10997OM     OM110997   2.946   3.695   0.334  0.0000  0.0000  0.0000
10998OM     OM110998   0.703   7.115   9.462  0.0000  0.0000  0.0000
10999OM     OM110999   6.995   7.016   0.019  0.0000  0.0000  0.0000
11000OM     OM111000   6.829   6.846   0.164  0.0000  0.0000  0.0000
11001OM     OM111001   5.937   3.366   9.498  0.0000  0.0000  0.0000
11002OM     OM111002   5.798   3.142   9.547  0.0000  0.0000  0.0000
11003OM     OM111003   3.026   1.545   1.246  0.0000  0.0000  0.0000
11004OM     OM111004   2.890   1.634   1.037  0.0000  0.0000  0.0000
11005OM     OM111005   8.380   5.442   8.785  0.0000  0.0000  0.0000
11006OM     OM111006   3.228   7.966   8.780  0.0000  0.0000  0.0000
11007OM     OM111007   5.063   8.979   8.374  0.0000  0.0000  0.0000
11008OM     OM111008   5.275   8.825   8.340  0.0000  0.0000  0.0000
11009OM     OM111009   5.839   2.295   1.220  0.0000  0.0000  0.0000
11010OM     OM111010   2.926   6.091   8.700  0.0000  0.0000  0.0000
11011OM     OM111011   4.939   5.150   0.002  0.0000  0.0000  0.0000
11012OM     OM111012   8.235   3.963   0.522  0.0000  0.0000  0.0000
11013OM     OM111013   7.064   4.370   0.834  0.0000  0.0000  0.0000
11014OM     OM111014   7.715   6.879   1.158  0.0000  0.0000  0.0000
11015OM     OM111015   0.052   2.279   8.909  0.0000  0.0000  0.0000
11016OM     OM111016   4.394   7.806   0.582  0.0000  0.0000  0.0000
11017OM     OM111017   2.299   8.871   9.373  0.0000  0.0000  0.0000
11018OM     OM111018   6.382   0.210   9.017  0.0000  0.0000  0.0000
11019OM     OM111019   6.151   0.207   9.142  0.0000  0.0000  0.0000
11020OM     OM111020   3.021   2.976   9.397  0.0000  0.0000  0.0000
11021OM     OM111021   3.130   2.747   9.466  0.0000  0.0000  0.0000
11022OM     OM111022   4.369   8.670   0.972  0.0000  0.0000  0.0000
11023OM     OM111023   5.130   6.444   0.798  0.0000  0.0000  0.0000
11024OM     OM111024   0.803   1.805   8.919  0.0000  0.0000  0.0000
11025OM     OM111025   0.766   1.652   8.706  0.0000  0.0000  0.0000
11026OM     OM111026   7.736   8.291   0.180  0.0000  0.0000  0.0000
11027OM     OM111027   6.191   1.967   9.363  0.0000  0.0000  0.0000
11028OM     OM111028   4.462   8.899   0.437  0.0000  0.0000  0.0000
11029OM     OM111029   2.200   6.585   1.163  0.0000  0.0000  0.0000
11030OM     OM111030   2.205   6.800   1.013  0.0000  0.0000  0.0000
11031OM     OM111031   2.667   9.511   0.053  0.0000  0.0000  0.0000
11032OM     OM111032   3.905   5.476   1.413  0.0000  0.0000  0.0000
11033OM     OM111033   8.438   4.120   0.430  0.0000  0.0000  0.0000
11034OM     OM111034   3.802   4.635   9.508  0.0000  0.0000  0.0000
11035OM     OM111035   7.289   4.867   0.744  0.0000  0.0000  0.0000
11036OM     OM111036   4.345   6.047   0.691  0.0000  0.0000  0.0000
11037OM     OM111037   6.407   6.932   0.782  0.0000  0.0000  0.0000
11038OM     OM111038   7.697   9.599   9.531  0.0000  0.0000  0.0000
11039OM     OM111039   2.675   8.398   0.991  0.0000  0.0000  0.0000
11040OM     OM111040   7.646   5.943   0.869  0.0000  0.0000  0.0000
11041OM     OM111041   4.139   4.947   1.031  0.0000  0.0000  0.0000
11042OM     OM111042   4.116   4.794   1.234  0.0000  0.0000  0.0000
11043OM     OM111043   6.797   5.453   1.141  0.0000  0.0000  0.0000
11044OM     OM111044   3.559   7.254   1.286  0.0000  0.0000  0.0000
11045OM     OM111045   0.862   1.545   8.489  0.0000  0.0000  0.0000
11046OM     OM111046   9.180   8.623   9.406  0.0000  0.0000  0.0000
11047OM     OM111047   9.359   8.527   9.574  0.0000  0.0000  0.0000
11048OM     OM111048   7.668   7.411   9.347  0.0000  0.0000  0.0000
11049OM     OM111049   2.687   4.374   1.164  0.0000  0.0000  0.0000
11050OM     OM111050   7.237   6.027   0.121  0.0000  0.0000  0.0000
11051OM     OM111051   6.466   4.055   0.494  0.0000  0.0000  0.0000
11052OM     OM111052   5.579   2.297   1.197  0.0000  0.0000  0.0000
11053OM     OM111053   5.290   5.507   0.710  0.0000  0.0000  0.0000
11054OM     OM111054   5.162   7.919   0.117  0.0000  0.0000  0.0000
11055OM     OM111055   4.959   7.842   9.573  0.0000  0.0000  0.0000
11056OM     OM111056   0.236   2.860   0.543  0.0000  0.0000  0.0000
11057OM     OM111057   1.698   1.762   0.559  0.0000  0.0000  0.0000
11058OM     OM111058   6.397   2.804   0.123  0.0000  0.0000  0.0000
11059OM     OM111059   7.894   5.398   1.018  0.0000  0.0000  0.0000
11060OM     OM111060   5.916   6.385   9.458  0.0000  0.0000  0.0000
11061OM     OM111061   5.790   6.170   9.549  0.0000  0.0000  0.0000
11062OM     OM111062   3.198   4.908   8.398  0.0000  0.0000  0.0000
11063OM     OM111063   4.077   7.116   0.376  0.0000  0.0000  0.0000
11064OM     OM111064   8.353   1.769   0.697  0.0000  0.0000  0.0000
11065OM     OM111065   9.142   0.695   9.339  0.0000  0.0000  0.0000
11066OM     OM111066   6.554   1.233   0.898  0.0000  0.0000  0.0000
11067OM     OM111067   1.745   3.334   9.456  0.0000  0.0000  0.0000
11068OM     OM111068   1.046   7.727   9.268  0.0000  0.0000  0.0000
11069OM     OM111069   6.715   2.522   1.305  0.0000  0.0000  0.0000
11070OM     OM111070   1.916   0.796   1.051  0.0000  0.0000  0.0000
11071OM     OM111071   1.064   5.373   0.208  0.0000  0.0000  0.0000
11072OM     OM111072   4.944   5.093   0.251  0.0000  0.0000  0.0000
11073OM     OM111073   4.806   5.044   0.472  0.0000  0.0000  0.0000
11074OM     OM111074   8.487   8.592   9.054  0.0000  0.0000  0.0000
11075OM     OM111075   3.962   0.496   8.328  0.0000  0.0000  0.0000
11076OM     OM111076   8.169   9.534   0.566  0.0000  0.0000  0.0000
11077OM     OM111077   5.603   4.094   0.804  0.0000  0.0000  0.0000
11078OM     OM111078   4.003   5.132   8.476  0.0000  0.0000  0.0000
11079OM     OM111079   1.100   5.369   0.461  0.0000  0.0000  0.0000
11080OM     OM111080   1.312   5.418   0.327  0.0000  0.0000  0.0000
11081OM     OM111081   0.777   0.388   8.300  0.0000  0.0000  0.0000
11082OM     OM111082   7.230   0.506   9.021  0.0000  0.0000  0.0000
11083OM     OM111083   3.927   1.924   0.633  0.0000  0.0000  0.0000
11084OM     OM111084   0.818   7.065   8.692  0.0000  0.0000  0.0000
11085OM     OM111085   6.619   1.930   8.715  0.0000  0.0000  0.0000
11086OM     OM111086   0.409   7.858   0.758  0.0000  0.0000  0.0000
11087OM     OM111087   1.650   0.270   9.600  0.0000  0.0000  0.0000
11088OM     OM111088   3.764   5.635   9.458  0.0000  0.0000  0.0000
11089OM     OM111089   0.991   6.892   0.195  0.0000  0.0000  0.0000
11090OM     OM111090   1.240   6.964   0.180  0.0000  0.0000  0.0000
11091OM     OM111091   7.520   1.997   0.870  0.0000  0.0000  0.0000
11092OM     OM111092   7.545   9.522   1.250  0.0000  0.0000  0.0000
11093OM     OM111093   3.827   6.363   9.567  0.0000  0.0000  0.0000
11094OM     OM111094   4.261   4.376   9.249  0.0000  0.0000  0.0000
11095OM     OM111095   0.919   7.895   1.048  0.0000  0.0000  0.0000
11096OM     OM111096   6.828   3.083   0.527  0.0000  0.0000  0.0000
11097OM     OM111097   0.956   7.894   1.298  0.0000  0.0000  0.0000
11098OM     OM111098   3.132   2.499   9.372  0.0000  0.0000  0.0000
11099OM     OM111099   8.474   4.087   0.173  0.0000  0.0000  0.0000
11100OM     OM111100   3.486   7.667   0.653  0.0000  0.0000  0.0000
11101OM     OM111101   5.434   4.901   0.767  0.0000  0.0000  0.0000
11102OM     OM111102   5.425   4.985   0.517  0.0000  0.0000  0.0000
11103OM     OM111103   7.638   3.197   0.319  0.0000  0.0000  0.0000
11104OM     OM111104   8.264   8.677   9.201  0.0000  0.0000  0.0000
11105OM     OM111105   4.576   9.300   1.099  0.0000  0.0000  0.0000
11106OM     OM111106   9.580   4.969   8.718  0.0000  0.0000  0.0000
11107OM     OM111107   7.176   3.183   8.804  0.0000  0.0000  0.0000
11108OM     OM111108   9.518   8.343   0.052  0.0000  0.0000  0.0000
11109OM     OM111109   7.803   2.535   0.460  0.0000  0.0000  0.0000
11110OM     OM111110   3.863   4.827   1.174  0.0000  0.0000  0.0000
11111OM     OM111111   6.417   2.084   9.434  0.0000  0.0000  0.0000
11112OM     OM111112   1.929   3.174   9.582  0.0000  0.0000  0.0000
11113OM     OM111113   7.691   9.367   1.121  0.0000  0.0000  0.0000
11114OM     OM111114   2.548   1.620   9.445  0.0000  0.0000  0.0000
11115OM     OM111115   5.126   7.673   0.176  0.0000  0.0000  0.0000
11116OM     OM111116   2.437   4.282   1.162  0.0000  0.0000  0.0000
11117OM     OM111117   7.677   8.766   9.475  0.0000  0.0000  0.0000
11118OM     OM111118   0.084   1.738   9.449  0.0000  0.0000  0.0000
11119OM     OM111119   8.698   2.765   0.389  0.0000  0.0000  0.0000
11120OM     OM111120   5.270   4.907   0.325  0.0000  0.0000  0.0000
11121OM     OM111121   1.997   1.000   0.905  0.0000  0.0000  0.0000
11122OM     OM111122   4.702   7.820   9.590  0.0000  0.0000  0.0000
11123OM     OM111123   1.447   1.476   9.586  0.0000  0.0000  0.0000
11124OM     OM111124   5.425   4.782   1.004  0.0000  0.0000  0.0000
11125OM     OM111125   9.201   5.888   1.098  0.0000  0.0000  0.0000
11126OM     OM111126   6.160   3.685   8.712  0.0000  0.0000  0.0000
11127OM     OM111127   3.717   8.287   9.262  0.0000  0.0000  0.0000
11128OM     OM111128   2.847   7.807   0.953  0.0000  0.0000  0.0000
11129OM     OM111129   2.048   8.908   9.445  0.0000  0.0000  0.0000
11130OM     OM111130   0.560   7.093   8.679  0.0000  0.0000  0.0000
11131OM     OM111131   0.765   5.858   8.735  0.0000  0.0000  0.0000
11132OM     OM111132   0.735   5.949   8.971  0.0000  0.0000  0.0000
11133OM     OM111133   0.869   2.851   0.354  0.0000  0.0000  0.0000
11134OM     OM111134   8.159   1.617   0.598  0.0000  0.0000  0.0000
11135OM     OM111135   5.914   0.328   9.154  0.0000  0.0000  0.0000
11136OM     OM111136   4.314   1.383   8.916  0.0000  0.0000  0.0000
11137OM     OM111137   1.222   2.321   1.369  0.0000  0.0000  0.0000
11138OM     OM111138   8.237   2.346   1.135  0.0000  0.0000  0.0000
11139OM     OM111139   5.191   3.846   1.190  0.0000  0.0000  0.0000
11140OM     OM111140   2.315   0.873   1.309  0.0000  0.0000  0.0000
11141OM     OM111141   3.698   5.791   1.334  0.0000  0.0000  0.0000
11142OM     OM111142   8.929   7.274   1.342  0.0000  0.0000  0.0000
11143OM     OM111143   1.462   2.132   8.191  0.0000  0.0000  0.0000
11144OM     OM111144   6.254   5.555   8.213  0.0000  0.0000  0.0000
11145OM     OM111145   4.160   4.151   1.345  0.0000  0.0000  0.0000
11146OM     OM111146   7.385   7.859   1.249  0.0000  0.0000  0.0000
11147OM     OM111147   9.390   0.847   1.337  0.0000  0.0000  0.0000
11148OM     OM111148   8.377   4.913   8.236  0.0000  0.0000  0.0000
11149OM     OM111149   4.723   4.602   8.282  0.0000  0.0000  0.0000
11150OM     OM111150   3.931   0.381   1.215  0.0000  0.0000  0.0000
11151OM     OM111151   1.246   1.050   1.329  0.0000  0.0000  0.0000
11152OM     OM111152   1.081   9.283   8.245  0.0000  0.0000  0.0000
11153OM     OM111153   1.548   9.037   8.391  0.0000  0.0000  0.0000
11154OM     OM111154   6.118   6.899   1.350  0.0000  0.0000  0.0000
11155OM     OM111155   6.218   1.709   8.338  0.0000  0.0000  0.0000
11156OM     OM111156   3.242   2.594   8.281  0.0000  0.0000  0.0000
11157OM     OM111157   2.612   7.184   1.380  0.0000  0.0000  0.0000
11158OM     OM111158   4.914   7.963   8.366  0.0000  0.0000  0.0000
11159OM     OM111159   5.356   3.220   1.266  0.0000  0.0000  0.0000
11160OM     OM111160   7.716   1.537   1.331  0.0000  0.0000  0.0000
11161OM     OM111161   3.453   1.548   1.332  0.0000  0.0000  0.0000
11162OM     OM111162   4.910   2.629   8.242  0.0000  0.0000  0.0000
11163OM     OM111163   0.198   1.386   1.318  0.0000  0.0000  0.0000
11164OM     OM111164   5.432   1.231   8.229  0.0000  0.0000  0.0000
11165OM     OM111165   3.966   1.436   8.315  0.0000  0.0000  0.0000
11166OM     OM111166   1.948   6.101   8.106  0.0000  0.0000  0.0000
11167OM     OM111167   6.765   7.755   1.367  0.0000  0.0000  0.0000
11168OM     OM111168   7.416   0.119   1.310  0.0000  0.0000  0.0000
11169OM     OM111169   7.384   9.001   1.405  0.0000  0.0000  0.0000
11170OM     OM111170   4.594   1.763   1.395  0.0000  0.0000  0.0000
11171OM     OM111171   0.351   1.953   8.281  0.0000  0.0000  0.0000
11172OM     OM111172   6.632   9.025   8.323  0.0000  0.0000  0.0000
11173OM     OM111173   9.374   0.053   8.232  0.0000  0.0000  0.0000
11174OM     OM111174   0.278   8.171   8.281  0.0000  0.0000  0.0000
11175OM     OM111175   4.499   4.056   8.174  0.0000  0.0000  0.0000
11176OM     OM111176   0.381   5.213   1.314  0.0000  0.0000  0.0000
11177OM     OM111177   1.933   0.830   1.389  0.0000  0.0000  0.0000
11178OM     OM111178   2.648   9.308   8.258  0.0000  0.0000  0.0000
11179OM     OM111179   6.959   8.209   1.262  0.0000  0.0000  0.0000
11180OM     OM111180   8.884   0.172   8.292  0.0000  0.0000  0.0000
11181OM     OM111181   3.901   8.698   1.323  0.0000  0.0000  0.0000
11182OM     OM111182   3.287   5.131   8.184  0.0000  0.0000  0.0000
11183OM     OM111183   0.642   3.203   1.386  0.0000  0.0000  0.0000
11184OM     OM111184   1.661   1.359   1.428  0.0000  0.0000  0.0000
11185OM     OM111185   1.621   6.555   8.149  0.0000  0.0000  0.0000
11186OM     OM111186   3.032   2.586   1.316  0.0000  0.0000  0.0000
11187OM     OM111187   9.271   3.691   1.203  0.0000  0.0000  0.0000
11188OM     OM111188   8.941   2.095   1.352  0.0000  0.0000  0.0000
11189OM     OM111189   5.169   6.998   1.358  0.0000  0.0000  0.0000
11190OM     OM111190   2.006   0.299   1.358  0.0000  0.0000  0.0000
11191OM     OM111191   8.696   2.354   8.248  0.0000  0.0000  0.0000
11192OM     OM111192   0.258   1.752   1.323  0.0000  0.0000  0.0000
11193OM     OM111193   1.992   2.840   1.316  0.0000  0.0000  0.0000
11194OM     OM111194   8.268   6.108   8.361  0.0000  0.0000  0.0000
11195OM     OM111195   4.258   4.965   1.385  0.0000  0.0000  0.0000
11196OM     OM111196   3.653   7.433   1.177  0.0000  0.0000  0.0000
11197OM     OM111197   2.169   3.524   8.246  0.0000  0.0000  0.0000
11198OM     OM111198   9.156   4.048   1.315  0.0000  0.0000  0.0000
11199OM     OM111199   9.537   4.385   1.425  0.0000  0.0000  0.0000
11200OM     OM111200   5.912   8.263   1.353  0.0000  0.0000  0.0000
11201OM     OM111201   2.363   9.181   1.340  0.0000  0.0000  0.0000
11202OM     OM111202   1.652   4.070   1.415  0.0000  0.0000  0.0000
11203OM     OM111203   7.767   8.051   8.225  0.0000  0.0000  0.0000
11204OM     OM111204   6.473   9.033   1.335  0.0000  0.0000  0.0000
11205OM     OM111205   2.951   9.446   1.415  0.0000  0.0000  0.0000
11206OM     OM111206   9.315   4.801   1.330  0.0000  0.0000  0.0000
11207OM     OM111207   5.566   6.075   8.319  0.0000  0.0000  0.0000
11208OM     OM111208   6.780   5.522   1.341  0.0000  0.0000  0.0000
11209OM     OM111209   6.575   4.270   8.250  0.0000  0.0000  0.0000
11210OM     OM111210   5.990   1.534   8.359  0.0000  0.0000  0.0000
11211OM     OM111211   1.969   6.449   1.418  0.0000  0.0000  0.0000
11212OM     OM111212   2.381   7.946   1.321  0.0000  0.0000  0.0000
11213OM     OM111213   3.514   3.724   8.181  0.0000  0.0000  0.0000
11214OM     OM111214   5.661   1.319   1.306  0.0000  0.0000  0.0000
11215OM     OM111215   1.627   5.256   1.323  0.0000  0.0000  0.0000
11216OM     OM111216   4.301   3.769   1.227  0.0000  0.0000  0.0000
11217OM     OM111217   4.853   3.302   1.435  0.0000  0.0000  0.0000
11218OM     OM111218   0.439   6.486   8.260  0.0000  0.0000  0.0000
11219OM     OM111219   7.788   4.964   8.437  0.0000  0.0000  0.0000
11220OM     OM111220   8.834   1.502   1.316  0.0000  0.0000  0.0000
11221OM     OM111221   8.094   9.241   1.364  0.0000  0.0000  0.0000
11222OM     OM111222   1.614   7.140   1.313  0.0000  0.0000  0.0000
11223OM     OM111223   1.560   0.557   8.240  0.0000  0.0000  0.0000
11224OM     OM111224   6.955   6.279   1.179  0.0000  0.0000  0.0000
11225OM     OM111225   4.533   7.412   1.381  0.0000  0.0000  0.0000
11226OM     OM111226   3.034   6.105   8.160  0.0000  0.0000  0.0000
11227OM     OM111227   6.924   2.865   1.416  0.0000  0.0000  0.0000
11228OM     OM111228   5.427   8.857   8.187  0.0000  0.0000  0.0000
11229OM     OM111229   3.771   4.087   8.287  0.0000  0.0000  0.0000
11230OM     OM111230   3.015   8.423   8.352  0.0000  0.0000  0.0000
11231OM     OM111231   2.201   3.618   1.407  0.0000  0.0000  0.0000
11232OM     OM111232   7.091   0.340   8.165  0.0000  0.0000  0.0000
11233OM     OM111233   1.953   1.467   1.439  0.0000  0.0000  0.0000
11234OM     OM111234   3.121   0.971   8.403  0.0000  0.0000  0.0000
11235OM     OM111235   7.817   7.533   8.143  0.0000  0.0000  0.0000
11236OM     OM111236   0.526   4.616   1.467  0.0000  0.0000  0.0000
11237OM     OM111237   1.843   8.363   8.303  0.0000  0.0000  0.0000
11238OM     OM111238   0.262   3.965   8.274  0.0000  0.0000  0.0000
11239OM     OM111239   9.273   0.836   8.154  0.0000  0.0000  0.0000
11240OM     OM111240   7.872   2.383   8.251  0.0000  0.0000  0.0000
11241OM     OM111241   0.572   8.753   1.470  0.0000  0.0000  0.0000
11242OM     OM111242   1.636   2.105   1.353  0.0000  0.0000  0.0000
11243OM     OM111243   6.910   2.428   1.378  0.0000  0.0000  0.0000
11244OM     OM111244   8.766   1.107   1.438  0.0000  0.0000  0.0000
11245OM     OM111245   2.695   1.892   1.369  0.0000  0.0000  0.0000
11246OM     OM111246   6.336   6.339   8.359  0.0000  0.0000  0.0000
11247OM     OM111247   6.815   1.785   8.367  0.0000  0.0000  0.0000
11248OM     OM111248   7.322   4.221   1.330  0.0000  0.0000  0.0000
11249OM     OM111249   7.586   0.750   8.186  0.0000  0.0000  0.0000
11250OM     OM111250   8.737   0.346   8.244  0.0000  0.0000  0.0000
11251OM     OM111251   6.708   8.824   8.268  0.0000  0.0000  0.0000
11252OM     OM111252   2.332   4.493   1.315  0.0000  0.0000  0.0000
11253OM     OM111253   1.655   2.417   8.308  0.0000  0.0000  0.0000
11254OM     OM111254   7.025   1.132   8.253  0.0000  0.0000  0.0000
11255OM     OM111255   5.482   1.599   8.134  0.0000  0.0000  0.0000
11256OM     OM111256   2.998   8.055   8.126  0.0000  0.0000  0.0000
11257OM     OM111257   5.030   1.718   1.443  0.0000  0.0000  0.0000
11258OM     OM111258   3.452   0.389   8.235  0.0000  0.0000  0.0000
11259OM     OM111259   5.420   8.629   1.336  0.0000  0.0000  0.0000
11260OM     OM111260   4.084   6.397   8.217  0.0000  0.0000  0.0000
11261OM     OM111261   3.467   3.571   1.440  0.0000  0.0000  0.0000
11262OM     OM111262   2.013   4.701   1.427  0.0000  0.0000  0.0000
11263OM     OM111263   2.381   3.852   8.145  0.0000  0.0000  0.0000
11264OM     OM111264   0.660   2.732   8.236  0.0000  0.0000  0.0000
11265OM     OM111265   9.263   2.283   1.407  0.0000  0.0000  0.0000
11266OM     OM111266   3.447   5.551   1.325  0.0000  0.0000  0.0000
11267OM     OM111267   0.517   7.738   8.233  0.0000  0.0000  0.0000
11268OM     OM111268   4.020   8.059   1.331  0.0000  0.0000  0.0000
11269OM     OM111269   5.562   2.917   8.104  0.0000  0.0000  0.0000
11270OM     OM111270   1.863   3.882   8.384  0.0000  0.0000  0.0000
11271OM     OM111271   2.703   6.221   1.301  0.0000  0.0000  0.0000
11272OM     OM111272   0.303   7.198   8.334  0.0000  0.0000  0.0000
11273OM     OM111273   9.232   8.869   1.359  0.0000  0.0000  0.0000
11274OM     OM111274   7.157   1.270   1.358  0.0000  0.0000  0.0000
11275OM     OM111275   6.200   6.068   1.300  0.0000  0.0000  0.0000
11276OM     OM111276   1.370   9.465   1.290  0.0000  0.0000  0.0000
11277OM     OM111277   6.510   7.019   8.267  0.0000  0.0000  0.0000
11278OM     OM111278   0.398   8.128   1.369  0.0000  0.0000  0.0000
11279OM     OM111279   1.739   5.499   1.453  0.0000  0.0000  0.0000
11280OM     OM111280   9.237   8.007   1.331  0.0000  0.0000  0.0000
11281OM     OM111281   6.788   2.649   8.176  0.0000  0.0000  0.0000
11282OM     OM111282   6.410   0.764   1.277  0.0000  0.0000  0.0000
11283OM     OM111283   8.626   7.576   1.375  0.0000  0.0000  0.0000
11284OM     OM111284   5.157   2.656   1.346  0.0000  0.0000  0.0000
11285OM     OM111285   0.635   1.019   8.149  0.0000  0.0000  0.0000
11286OM     OM111286   0.964   5.617   8.268  0.0000  0.0000  0.0000
11287OM     OM111287   5.974   7.206   8.147  0.0000  0.0000  0.0000
11288OM     OM111288   7.817   6.444   8.161  0.0000  0.0000  0.0000
11289OM     OM111289   4.080   2.966   8.232  0.0000  0.0000  0.0000
11290OM     OM111290   2.950   8.382   1.298  0.0000  0.0000  0.0000
11291OM     OM111291   9.377   2.993   8.359  0.0000  0.0000  0.0000
11292OM     OM111292   4.111   5.227   8.205  0.0000  0.0000  0.0000
11293OM     OM111293   0.321   0.732   8.303  0.0000  0.0000  0.0000
11294OM     OM111294   7.151   8.087   8.149  0.0000  0.0000  0.0000
11295OM     OM111295   0.942   2.822   1.419  0.0000  0.0000  0.0000
11296OM     OM111296   8.630   0.984   8.204  0.0000  0.0000  0.0000
11297OM     OM111297   5.426   4.300   1.293  0.0000  0.0000  0.0000
11298OM     OM111298   4.895   5.386   1.280  0.0000  0.0000  0.0000
11299OM     OM111299   8.230   1.925   1.288  0.0000  0.0000  0.0000
11300OM     OM111300   9.231   7.717   1.422  0.0000  0.0000  0.0000
11301OM     OM111301   0.312   6.773   1.279  0.0000  0.0000  0.0000
11302OM     OM111302   6.613   2.258   1.408  0.0000  0.0000  0.0000
11303OM     OM111303   0.937   6.167   1.408  0.0000  0.0000  0.0000
11304OM     OM111304   3.035   4.971   1.343  0.0000  0.0000  0.0000
11305OM     OM111305   3.932   7.147   1.394  0.0000  0.0000  0.0000
11306OM     OM111306   8.822   0.321   1.187  0.0000  0.0000  0.0000
11307OM     OM111307   0.041   6.028   8.245  0.0000  0.0000  0.0000
11308OM     OM111308   8.097   1.406   1.213  0.0000  0.0000  0.0000
11309OM     OM111309   6.946   8.624   8.245  0.0000  0.0000  0.0000
11310OM     OM111310   3.936   4.545   8.354  0.0000  0.0000  0.0000
11311OM     OM111311   5.636   3.128   1.365  0.0000  0.0000  0.0000
11312OM     OM111312   2.415   8.809   8.364  0.0000  0.0000  0.0000
11313OM     OM111313   6.262   1.142   8.343  0.0000  0.0000  0.0000
11314OM     OM111314   7.395   2.803   1.288  0.0000  0.0000  0.0000
11315OM     OM111315   0.764   8.894   1.394  0.0000  0.0000  0.0000
11316OM     OM111316   8.293   1.365   8.129  0.0000  0.0000  0.0000
11317OM     OM111317   9.120   6.362   1.357  0.0000  0.0000  0.0000
11318OM     OM111318   7.942   0.696   1.450  0.0000  0.0000  0.0000
11319OM     OM111319   7.065   6.239   1.341  0.0000  0.0000  0.0000
11320OM     OM111320   3.541   8.050   8.186  0.0000  0.0000  0.0000
11321OM     OM111321   1.055   8.249   1.394  0.0000  0.0000  0.0000
11322OM     OM111322   7.963   4.650   1.382  0.0000  0.0000  0.0000
11323OM     OM111323   7.436   6.814   8.316  0.0000  0.0000  0.0000
11324OM     OM111324   5.943   2.734   8.153  0.0000  0.0000  0.0000
11325OM     OM111325   6.131   4.779   8.301  0.0000  0.0000  0.0000
11326OM     OM111326   4.321   7.172   8.197  0.0000  0.0000  0.0000
11327OM     OM111327   5.836   0.182   8.294  0.0000  0.0000  0.0000
11328OM     OM111328   1.082   1.577   8.145  0.0000  0.0000  0.0000
11329OM     OM111329   8.833   5.659   8.303  0.0000  0.0000  0.0000
11330OM     OM111330   5.214   5.960   1.286  0.0000  0.0000  0.0000
11331OM     OM111331   9.519   2.069   8.262  0.0000  0.0000  0.0000
11332OM     OM111332   7.806   8.408   8.121  0.0000  0.0000  0.0000
11333OM     OM111333   0.902   3.552   8.200  0.0000  0.0000  0.0000
11334OM     OM111334   5.663   6.408   1.414  0.0000  0.0000  0.0000
11335OM     OM111335   1.473   0.431   8.401  0.0000  0.0000  0.0000
11336OM     OM111336   8.838   9.129   8.306  0.0000  0.0000  0.0000
11337OM     OM111337   4.754   7.030   8.288  0.0000  0.0000  0.0000
11338OM     OM111338   6.626   0.522   8.398  0.0000  0.0000  0.0000
11339OM     OM111339   1.865   9.483   1.411  0.0000  0.0000  0.0000
11340OM     OM111340   5.564   7.958   8.291  0.0000  0.0000  0.0000
11341OM     OM111341   6.069   4.353   8.244  0.0000  0.0000  0.0000
11342OM     OM111342   8.267   9.101   8.376  0.0000  0.0000  0.0000
11343OM     OM111343   5.669   4.543   8.336  0.0000  0.0000  0.0000
11344OM     OM111344   3.128   3.973   1.353  0.0000  0.0000  0.0000
11345OM     OM111345   2.673   3.632   1.384  0.0000  0.0000  0.0000
11346OM     OM111346   8.892   5.026   8.393  0.0000  0.0000  0.0000
11347OM     OM111347   7.863   7.015   8.166  0.0000  0.0000  0.0000
11348OM     OM111348   5.010   3.892   8.241  0.0000  0.0000  0.0000
11349OM     OM111349   6.055   5.342   8.233  0.0000  0.0000  0.0000
11350OM     OM111350   7.644   5.210   8.321  0.0000  0.0000  0.0000
11351OM     OM111351   6.194   3.910   1.165  0.0000  0.0000  0.0000
11352OM     OM111352   4.709   2.189   8.208  0.0000  0.0000  0.0000
11353OM     OM111353   5.396   3.395   8.159  0.0000  0.0000  0.0000
11354OM     OM111354   2.481   2.386   8.356  0.0000  0.0000  0.0000
11355OM     OM111355   2.255   4.136   8.178  0.0000  0.0000  0.0000
11356OM     OM111356   5.435   9.279   1.399  0.0000  0.0000  0.0000
11357OM     OM111357   3.518   7.040   1.419  0.0000  0.0000  0.0000
11358OM     OM111358   8.668   6.536   1.288  0.0000  0.0000  0.0000
11359OM     OM111359   7.779   0.203   1.426  0.0000  0.0000  0.0000
11360OM     OM111360   8.683   7.690   8.310  0.0000  0.0000  0.0000
11361OM     OM111361   0.341   2.856   1.352  0.0000  0.0000  0.0000
11362OM     OM111362   0.857   7.900   8.167  0.0000  0.0000  0.0000
11363OM     OM111363   8.123   3.050   1.257  0.0000  0.0000  0.0000
11364OM     OM111364   6.220   1.431   1.355  0.0000  0.0000  0.0000
11365OM     OM111365   6.285   7.810   8.402  0.0000  0.0000  0.0000
11366OM     OM111366   1.646   5.897   8.219  0.0000  0.0000  0.0000
11367OM     OM111367   7.800   4.848   1.333  0.0000  0.0000  0.0000
11368OM     OM111368   3.563   9.256   8.298  0.0000  0.0000  0.0000
11369OM     OM111369   8.181   6.469   1.364  0.0000  0.0000  0.0000
11370OM     OM111370   0.222   5.899   8.296  0.0000  0.0000  0.0000
11371OM     OM111371   7.416   8.858   8.235  0.0000  0.0000  0.0000
11372OM     OM111372   3.389   6.629   8.218  0.0000  0.0000  0.0000
11373OM     OM111373   9.107   9.009   1.422  0.0000  0.0000  0.0000
11374OM     OM111374   7.271   3.315   8.207  0.0000  0.0000  0.0000
11375OM     OM111375   2.351   6.212   1.306  0.0000  0.0000  0.0000
11376OM     OM111376   0.138   8.343   8.366  0.0000  0.0000  0.0000
11377OM     OM111377   4.491   0.424   1.351  0.0000  0.0000  0.0000
11378OM     OM111378   2.489   4.817   8.317  0.0000  0.0000  0.0000
11379OM     OM111379   1.956   0.745   8.450  0.0000  0.0000  0.0000
11380OM     OM111380   5.714   2.031   8.231  0.0000  0.0000  0.0000
11381OM     OM111381   5.621   5.510   1.250  0.0000  0.0000  0.0000
11382OM     OM111382   8.284   1.333   1.366  0.0000  0.0000  0.0000
11383OM     OM111383   4.606   6.001   1.258  0.0000  0.0000  0.0000
11384OM     OM111384   1.410   2.948   8.286  0.0000  0.0000  0.0000
11385OM     OM111385   9.063   6.735   8.207  0.0000  0.0000  0.0000
11386OM     OM111386   0.274   7.055   1.345  0.0000  0.0000  0.0000
11387OM     OM111387   1.953   7.272   8.276  0.0000  0.0000  0.0000
11388OM     OM111388   3.071   3.660   8.319  0.0000  0.0000  0.0000
11389OM     OM111389   0.481   0.454   1.330  0.0000  0.0000  0.0000
11390OM     OM111390   3.436   4.709   1.277  0.0000  0.0000  0.0000
11391OM     OM111391   8.536   7.139   1.233  0.0000  0.0000  0.0000
11392OM     OM111392   7.540   1.073   8.264  0.0000  0.0000  0.0000
11393OM     OM111393   1.957   3.112   8.147  0.0000  0.0000  0.0000
11394OM     OM111394   1.986   6.697   1.483  0.0000  0.0000  0.0000
11395OM     OM111395   7.565   3.838   8.231  0.0000  0.0000  0.0000
11396OM     OM111396   5.450   4.805   1.409  0.0000  0.0000  0.0000
11397OM     OM111397   3.416   8.487   1.409  0.0000  0.0000  0.0000
11398OM     OM111398   4.498   3.161   8.435  0.0000  0.0000  0.0000
11399OM     OM111399   3.475   2.334   1.182  0.0000  0.0000  0.0000
11400OM     OM111400   0.310   3.755   8.208  0.0000  0.0000  0.0000
11401OM     OM111401   3.033   0.477   8.174  0.0000  0.0000  0.0000
11402OM     OM111402   2.781   7.305   1.347  0.0000  0.0000  0.0000
11403OM     OM111403   5.571   2.050   1.340  0.0000  0.0000  0.0000
11404OM     OM111404   6.865   4.694   1.219  0.0000  0.0000  0.0000
11405OM     OM111405   0.731   6.467   1.382  0.0000  0.0000  0.0000
11406OM     OM111406   7.991   7.596   1.258  0.0000  0.0000  0.0000
11407OM     OM111407   3.229   5.594   8.152  0.0000  0.0000  0.0000
11408OM     OM111408   6.926   5.865   8.280  0.0000  0.0000  0.0000
11409OM     OM111409   1.081   5.425   8.188  0.0000  0.0000  0.0000
11410OM     OM111410   0.423   4.286   1.482  0.0000  0.0000  0.0000
11411OM     OM111411   6.575   1.329   1.175  0.0000  0.0000  0.0000
11412OM     OM111412   8.103   5.697   8.191  0.0000  0.0000  0.0000
11413OM     OM111413   2.139   4.874   1.334  0.0000  0.0000  0.0000
11414OM     OM111414   0.280   0.501   8.181  0.0000  0.0000  0.0000
11415OM     OM111415   3.767   6.443   8.401  0.0000  0.0000  0.0000
11416OM     OM111416   8.116   2.913   8.417  0.0000  0.0000  0.0000
11417OM     OM111417   2.422   5.753   1.418  0.0000  0.0000  0.0000
11418OM     OM111418   9.024   6.318   8.306  0.0000  0.0000  0.0000
11419OM     OM111419   8.401   8.803   1.394  0.0000  0.0000  0.0000
11420OM     OM111420   0.708   7.071   8.254  0.0000  0.0000  0.0000
11421OM     OM111421   1.843   8.786   8.295  0.0000  0.0000  0.0000
11422OM     OM111422   4.058   0.314   8.286  0.0000  0.0000  0.0000
11423OM     OM111423   6.047   2.940   1.371  0.0000  0.0000  0.0000
11424OM     OM111424   0.794   6.201   8.225  0.0000  0.0000  0.0000
11425OM     OM111425   5.686   8.671   8.472  0.0000  0.0000  0.0000
11426OM     OM111426   2.177   8.821   1.367  0.0000  0.0000  0.0000
11427OM     OM111427   2.423   8.287   8.301  0.0000  0.0000  0.0000
11428OM     OM111428   6.709   5.815   1.424  0.0000  0.0000  0.0000
11429OM     OM111429   8.024   2.526   8.170  0.0000  0.0000  0.0000
11430OM     OM111430   5.758   9.587   1.163  0.0000  0.0000  0.0000
11431OM     OM111431   2.546   1.332   8.247  0.0000  0.0000  0.0000
11432OM     OM111432   2.225   9.069   8.140  0.0000  0.0000  0.0000
11433OM     OM111433   0.662   5.661   1.477  0.0000  0.0000  0.0000
11434OM     OM111434   2.939   4.415   8.175  0.0000  0.0000  0.0000
11435OM     OM111435   5.691   2.471   1.402  0.0000  0.0000  0.0000
11436OM     OM111436   3.430   2.315   1.419  0.0000  0.0000  0.0000
11437OM     OM111437   6.575   6.134   1.492  0.0000  0.0000  0.0000
11438OM     OM111438   8.089   4.212   8.304  0.0000  0.0000  0.0000
11439OM     OM111439   3.375   3.005   0.894  0.0000  0.0000  0.0000
11440OM     OM111440   3.085   2.819   8.358  0.0000  0.0000  0.0000
11441OM     OM111441   6.287   0.626   8.212  0.0000  0.0000  0.0000
11442OM     OM111442   0.836   4.633   8.233  0.0000  0.0000  0.0000
11443OM     OM111443   5.399   0.974   8.259  0.0000  0.0000  0.0000
11444OM     OM111444   1.399   2.583   1.414  0.0000  0.0000  0.0000
11445OM     OM111445   4.409   2.522   1.286  0.0000  0.0000  0.0000
11446OM     OM111446   8.457   1.543   8.203  0.0000  0.0000  0.0000
11447OM     OM111447   3.606   1.073   8.334  0.0000  0.0000  0.0000
11448OM     OM111448   0.395   9.226   8.239  0.0000  0.0000  0.0000
11449SI     SI111449   3.828   2.951   0.428  0.0000  0.0000  0.0000
11450SI     SI111450   6.126   5.549   8.914  0.0000  0.0000  0.0000
11451SI     SI111451   4.913   3.675   1.184  0.0000  0.0000  0.0000
11452SI     SI111452   8.881   4.095   9.347  0.0000  0.0000  0.0000
11453SI     SI111453   0.699   4.887   1.413  0.0000  0.0000  0.0000
11454SI     SI111454   5.800   6.900   1.166  0.0000  0.0000  0.0000
11455SI     SI111455   1.683   0.810   0.736  0.0000  0.0000  0.0000
11456SI     SI111456   7.992   5.884   8.357  0.0000  0.0000  0.0000
11457SI     SI111457   8.774   6.195   0.282  0.0000  0.0000  0.0000
11458SI     SI111458   3.389   6.775   9.440  0.0000  0.0000  0.0000
11459SI     SI111459   1.312   3.075   9.568  0.0000  0.0000  0.0000
11460SI     SI111460   7.965   1.045   8.432  0.0000  0.0000  0.0000
11461SI     SI111461   1.439   8.128   9.127  0.0000  0.0000  0.0000
11462SI     SI111462   6.947   6.527   8.744  0.0000  0.0000  0.0000
11463SI     SI111463   3.847   1.109   0.140  0.0000  0.0000  0.0000
11464SI     SI111464   1.783   1.466   8.425  0.0000  0.0000  0.0000
11465SI     SI111465   1.368   3.200   8.353  0.0000  0.0000  0.0000
11466SI     SI111466   4.137   4.574   0.148  0.0000  0.0000  0.0000
11467SI     SI111467   4.816   9.585   1.158  0.0000  0.0000  0.0000
11468SI     SI111468   3.645   4.078   8.705  0.0000  0.0000  0.0000
11469SI     SI111469   2.910   0.952   0.758  0.0000  0.0000  0.0000
11470SI     SI111470   5.951   1.925   0.442  0.0000  0.0000  0.0000
11471SI     SI111471   8.830   4.024   1.332  0.0000  0.0000  0.0000
11472SI     SI111472   0.323   1.479   9.200  0.0000  0.0000  0.0000
11473SI     SI111473   5.765   1.368   9.444  0.0000  0.0000  0.0000
11474SI     SI111474   0.418   3.122   0.269  0.0000  0.0000  0.0000
11475SI     SI111475   0.550   2.146   0.498  0.0000  0.0000  0.0000
11476SI     SI111476   7.549   5.127   0.360  0.0000  0.0000  0.0000
11477SI     SI111477   9.428   0.142   9.284  0.0000  0.0000  0.0000
11478SI     SI111478   4.001   2.392   9.518  0.0000  0.0000  0.0000
11479SI     SI111479   0.512   6.963   8.305  0.0000  0.0000  0.0000
11480SI     SI111480   5.426   5.127   9.080  0.0000  0.0000  0.0000
11481SI     SI111481   6.024   8.697   9.095  0.0000  0.0000  0.0000
11482SI     SI111482   5.714   5.045   9.145  0.0000  0.0000  0.0000
11483SI     SI111483   1.435   5.140   1.254  0.0000  0.0000  0.0000
11484SI     SI111484   0.595   3.836   8.655  0.0000  0.0000  0.0000
11485SI     SI111485   6.213   2.270   8.448  0.0000  0.0000  0.0000
11486SI     SI111486   2.325   3.493   0.259  0.0000  0.0000  0.0000
11487SI     SI111487   7.683   1.521   0.272  0.0000  0.0000  0.0000
11488SI     SI111488   9.031   4.333   9.487  0.0000  0.0000  0.0000
11489SI     SI111489   5.092   2.824   8.826  0.0000  0.0000  0.0000
11490SI     SI111490   8.172   7.506   0.708  0.0000  0.0000  0.0000
11491SI     SI111491   1.677   1.228   8.587  0.0000  0.0000  0.0000
11492SI     SI111492   0.859   1.819   0.692  0.0000  0.0000  0.0000
11493SI     SI111493   5.849   0.144   0.944  0.0000  0.0000  0.0000
11494SI     SI111494   5.432   6.300   0.975  0.0000  0.0000  0.0000
11495SI     SI111495   5.539   3.315   0.486  0.0000  0.0000  0.0000
11496SI     SI111496   7.278   6.570   0.208  0.0000  0.0000  0.0000
11497SI     SI111497   8.774   0.787   0.574  0.0000  0.0000  0.0000
11498SI     SI111498   7.206   3.448   9.133  0.0000  0.0000  0.0000
11499SI     SI111499   3.381   3.708   0.816  0.0000  0.0000  0.0000
11500SI     SI111500   2.416   2.616   1.046  0.0000  0.0000  0.0000
11501SI     SI111501   3.393   7.945   0.368  0.0000  0.0000  0.0000
11502SI     SI111502   7.418   5.035   9.481  0.0000  0.0000  0.0000
11503SI     SI111503   8.015   1.468   8.654  0.0000  0.0000  0.0000
11504SI     SI111504   8.499   9.063   8.343  0.0000  0.0000  0.0000
11505SI     SI111505   6.294   3.373   0.021  0.0000  0.0000  0.0000
11506SI     SI111506   7.023   0.525   0.795  0.0000  0.0000  0.0000
11507SI     SI111507   6.151   0.620   0.522  0.0000  0.0000  0.0000
11508SI     SI111508   2.722   1.436   8.385  0.0000  0.0000  0.0000
11509SI     SI111509   8.664   5.957   9.108  0.0000  0.0000  0.0000
11510SI     SI111510   8.169   5.177   0.867  0.0000  0.0000  0.0000
11511SI     SI111511   6.333   1.534   8.997  0.0000  0.0000  0.0000
11512SI     SI111512   9.174   6.861   8.389  0.0000  0.0000  0.0000
11513SI     SI111513   7.989   2.595   9.269  0.0000  0.0000  0.0000
11514SI     SI111514   9.236   6.066   9.228  0.0000  0.0000  0.0000
11515SI     SI111515   8.645   2.641   8.405  0.0000  0.0000  0.0000
11516SI     SI111516   5.358   3.641   0.783  0.0000  0.0000  0.0000
11517SI     SI111517   7.655   1.210   9.094  0.0000  0.0000  0.0000
11518SI     SI111518   6.913   6.111   0.542  0.0000  0.0000  0.0000
11519SI     SI111519   8.816   7.576   9.324  0.0000  0.0000  0.0000
11520SI     SI111520   3.097   1.541   0.034  0.0000  0.0000  0.0000
11521SI     SI111521   1.560   4.297   0.195  0.0000  0.0000  0.0000
11522SI     SI111522   2.265   4.043   0.278  0.0000  0.0000  0.0000
11523SI     SI111523   3.267   1.786   1.182  0.0000  0.0000  0.0000
11524SI     SI111524   5.598   0.120   9.315  0.0000  0.0000  0.0000
11525SI     SI111525   1.064   1.322   0.801  0.0000  0.0000  0.0000
11526SI     SI111526   6.900   6.230   0.253  0.0000  0.0000  0.0000
11527SI     SI111527   5.979   5.508   0.011  0.0000  0.0000  0.0000
11528SI     SI111528   4.147   7.303   8.955  0.0000  0.0000  0.0000
11529SI     SI111529   4.153   8.892   0.154  0.0000  0.0000  0.0000
11530SI     SI111530   0.160   4.706   8.996  0.0000  0.0000  0.0000
11531SI     SI111531   8.885   2.737   9.297  0.0000  0.0000  0.0000
11532SI     SI111532   0.060   7.192   8.999  0.0000  0.0000  0.0000
11533SI     SI111533   4.579   1.916   8.298  0.0000  0.0000  0.0000
11534SI     SI111534   7.349   3.281   0.630  0.0000  0.0000  0.0000
11535SI     SI111535   9.254   0.613   1.163  0.0000  0.0000  0.0000
11536SI     SI111536   4.294   5.097   0.177  0.0000  0.0000  0.0000
11537SI     SI111537   8.328   8.586   0.796  0.0000  0.0000  0.0000
11538SI     SI111538   5.570   4.265   8.421  0.0000  0.0000  0.0000
11539SI     SI111539   9.189   7.411   8.440  0.0000  0.0000  0.0000
11540SI     SI111540   4.305   8.788   8.640  0.0000  0.0000  0.0000
11541SI     SI111541   1.373   6.424   0.173  0.0000  0.0000  0.0000
11542SI     SI111542   9.108   2.967   1.007  0.0000  0.0000  0.0000
11543SI     SI111543   8.123   7.835   0.020  0.0000  0.0000  0.0000
11544SI     SI111544   0.496   9.437   9.288  0.0000  0.0000  0.0000
11545SI     SI111545   3.973   8.756   9.057  0.0000  0.0000  0.0000
11546SI     SI111546   8.769   0.995   0.160  0.0000  0.0000  0.0000
11547SI     SI111547   9.575   4.168   0.207  0.0000  0.0000  0.0000
11548SI     SI111548   6.275   9.203   0.069  0.0000  0.0000  0.0000
11549SI     SI111549   6.740   4.354   8.563  0.0000  0.0000  0.0000
11550SI     SI111550   0.305   0.244   1.257  0.0000  0.0000  0.0000
11551SI     SI111551   5.076   9.187   0.207  0.0000  0.0000  0.0000
11552SI     SI111552   9.011   6.203   9.409  0.0000  0.0000  0.0000
11553SI     SI111553   1.891   0.153   9.359  0.0000  0.0000  0.0000
11554SI     SI111554   5.078   4.162   9.081  0.0000  0.0000  0.0000
11555SI     SI111555   8.690   7.669   8.889  0.0000  0.0000  0.0000
11556SI     SI111556   1.634   6.691   8.389  0.0000  0.0000  0.0000
11557SI     SI111557   9.182   1.920   9.441  0.0000  0.0000  0.0000
11558SI     SI111558   8.176   2.329   8.213  0.0000  0.0000  0.0000
11559SI     SI111559   7.104   5.368   0.346  0.0000  0.0000  0.0000
11560SI     SI111560   2.133   8.193   0.961  0.0000  0.0000  0.0000
11561SI     SI111561   4.714   3.228   9.161  0.0000  0.0000  0.0000
11562SI     SI111562   5.777   6.064   0.341  0.0000  0.0000  0.0000
11563SI     SI111563   8.884   6.759   8.620  0.0000  0.0000  0.0000
11564SI     SI111564   2.259   3.733   8.304  0.0000  0.0000  0.0000
11565SI     SI111565   0.671   3.379   9.537  0.0000  0.0000  0.0000
11566SI     SI111566   7.763   1.347   1.166  0.0000  0.0000  0.0000
11567SI     SI111567   1.920   5.263   0.177  0.0000  0.0000  0.0000
11568SI     SI111568   5.160   7.635   9.168  0.0000  0.0000  0.0000
11569SI     SI111569   6.701   3.816   8.465  0.0000  0.0000  0.0000
11570SI     SI111570   0.282   0.872   8.950  0.0000  0.0000  0.0000
11571SI     SI111571   3.599   9.451   9.091  0.0000  0.0000  0.0000
11572SI     SI111572   6.351   5.548   9.248  0.0000  0.0000  0.0000
11573SI     SI111573   9.416   2.982   0.210  0.0000  0.0000  0.0000
11574SI     SI111574   0.733   6.770   8.387  0.0000  0.0000  0.0000
11575SI     SI111575   3.012   5.153   1.161  0.0000  0.0000  0.0000
11576SI     SI111576   5.588   5.008   1.294  0.0000  0.0000  0.0000
11577SI     SI111577   6.318   7.646   1.169  0.0000  0.0000  0.0000
11578SI     SI111578   7.565   8.398   0.537  0.0000  0.0000  0.0000
11579SI     SI111579   1.076   4.116   9.284  0.0000  0.0000  0.0000
11580SI     SI111580   3.877   9.602   9.053  0.0000  0.0000  0.0000
11581SI     SI111581   3.566   6.475   1.086  0.0000  0.0000  0.0000
11582SI     SI111582   1.434   8.718   8.929  0.0000  0.0000  0.0000
11583SI     SI111583   5.960   3.533   0.226  0.0000  0.0000  0.0000
11584SI     SI111584   8.756   6.238   9.222  0.0000  0.0000  0.0000
11585SI     SI111585   7.875   4.071   0.664  0.0000  0.0000  0.0000
11586SI     SI111586   5.010   6.294   9.471  0.0000  0.0000  0.0000
11587SI     SI111587   6.865   1.157   8.441  0.0000  0.0000  0.0000
11588SI     SI111588   2.773   2.364   8.855  0.0000  0.0000  0.0000
11589SI     SI111589   6.339   6.912   8.556  0.0000  0.0000  0.0000
11590SI     SI111590   9.237   8.035   0.552  0.0000  0.0000  0.0000
11591SI     SI111591   7.290   3.945   0.263  0.0000  0.0000  0.0000
11592SI     SI111592   0.237   7.373   8.838  0.0000  0.0000  0.0000
11593SI     SI111593   8.132   5.794   9.090  0.0000  0.0000  0.0000
11594SI     SI111594   1.559   9.384   0.033  0.0000  0.0000  0.0000
11595SI     SI111595   2.394   5.711   9.194  0.0000  0.0000  0.0000
11596SI     SI111596   9.081   4.999   1.140  0.0000  0.0000  0.0000
11597SI     SI111597   7.670   0.118   9.154  0.0000  0.0000  0.0000
11598SI     SI111598   7.959   0.145   9.062  0.0000  0.0000  0.0000
11599SI     SI111599   6.040   3.252   0.852  0.0000  0.0000  0.0000
11600SI     SI111600   1.649   2.444   9.470  0.0000  0.0000  0.0000
11601SI     SI111601   6.754   1.489   1.271  0.0000  0.0000  0.0000
11602SI     SI111602   0.037   6.930   0.268  0.0000  0.0000  0.0000
11603SI     SI111603   4.640   9.085   8.840  0.0000  0.0000  0.0000
11604SI     SI111604   8.514   7.645   9.386  0.0000  0.0000  0.0000
11605SI     SI111605   4.847   0.141   9.160  0.0000  0.0000  0.0000
11606SI     SI111606   8.853   6.594   0.121  0.0000  0.0000  0.0000
11607SI     SI111607   0.450   0.583   0.086  0.0000  0.0000  0.0000
11608SI     SI111608   8.888   1.942   9.342  0.0000  0.0000  0.0000
11609SI     SI111609   7.670   7.691   0.326  0.0000  0.0000  0.0000
11610SI     SI111610   9.593   0.811   8.469  0.0000  0.0000  0.0000
11611SI     SI111611   8.430   7.761   0.066  0.0000  0.0000  0.0000
11612SI     SI111612   8.368   1.595   0.088  0.0000  0.0000  0.0000
11613SI     SI111613   0.203   8.807   0.630  0.0000  0.0000  0.0000
11614SI     SI111614   0.077   1.377   0.333  0.0000  0.0000  0.0000
11615SI     SI111615   5.562   4.146   9.046  0.0000  0.0000  0.0000
11616SI     SI111616   0.581   4.136   1.391  0.0000  0.0000  0.0000
11617SI     SI111617   3.392   3.589   9.560  0.0000  0.0000  0.0000
11618SI     SI111618   9.027   5.541   9.075  0.0000  0.0000  0.0000
11619SI     SI111619   7.438   2.120   8.675  0.0000  0.0000  0.0000
11620SI     SI111620   8.537   0.872   0.001  0.0000  0.0000  0.0000
11621SI     SI111621   0.493   4.276   8.651  0.0000  0.0000  0.0000
11622SI     SI111622   2.687   6.934   8.750  0.0000  0.0000  0.0000
11623SI     SI111623   6.002   0.309   0.730  0.0000  0.0000  0.0000
11624SI     SI111624   3.390   4.445   0.242  0.0000  0.0000  0.0000
11625SI     SI111625   8.134   9.018   1.041  0.0000  0.0000  0.0000
11626SI     SI111626   9.065   3.328   0.352  0.0000  0.0000  0.0000
11627SI     SI111627   3.711   0.650   0.986  0.0000  0.0000  0.0000
11628SI     SI111628   3.613   0.602   8.360  0.0000  0.0000  0.0000
11629SI     SI111629   3.410   6.850   0.785  0.0000  0.0000  0.0000
11630SI     SI111630   2.633   3.529   8.768  0.0000  0.0000  0.0000
11631SI     SI111631   2.073   5.893   9.035  0.0000  0.0000  0.0000
11632SI     SI111632   4.198   3.632   9.578  0.0000  0.0000  0.0000
11633SI     SI111633   9.379   9.003   8.493  0.0000  0.0000  0.0000
11634SI     SI111634   5.221   0.937   0.585  0.0000  0.0000  0.0000
11635SI     SI111635   3.419   9.271   0.705  0.0000  0.0000  0.0000
11636SI     SI111636   7.015   8.132   9.437  0.0000  0.0000  0.0000
11637SI     SI111637   8.900   5.262   9.026  0.0000  0.0000  0.0000
11638SI     SI111638   3.426   5.343   9.390  0.0000  0.0000  0.0000
11639SI     SI111639   1.574   7.819   9.532  0.0000  0.0000  0.0000
11640SI     SI111640   0.068   4.447   8.827  0.0000  0.0000  0.0000
11641SI     SI111641   1.091   3.091   8.427  0.0000  0.0000  0.0000
11642SI     SI111642   4.433   4.903   9.577  0.0000  0.0000  0.0000
11643SI     SI111643   1.770   1.189   1.095  0.0000  0.0000  0.0000
11644SI     SI111644   8.351   8.281   9.529  0.0000  0.0000  0.0000
11645SI     SI111645   9.377   4.980   1.049  0.0000  0.0000  0.0000
11646SI     SI111646   4.282   2.824   0.744  0.0000  0.0000  0.0000
11647SI     SI111647   1.142   3.466   0.036  0.0000  0.0000  0.0000
11648SI     SI111648   6.666   0.812   0.095  0.0000  0.0000  0.0000
11649SI     SI111649   8.403   4.146   1.105  0.0000  0.0000  0.0000
11650SI     SI111650   4.487   0.757   0.476  0.0000  0.0000  0.0000
11651SI     SI111651   8.941   1.027   9.496  0.0000  0.0000  0.0000
11652SI     SI111652   9.317   1.869   0.920  0.0000  0.0000  0.0000
11653SI     SI111653   7.055   1.809   9.597  0.0000  0.0000  0.0000
11654SI     SI111654   1.039   8.316   8.903  0.0000  0.0000  0.0000
11655SI     SI111655   6.406   0.665   0.162  0.0000  0.0000  0.0000
11656SI     SI111656   1.767   0.303   9.116  0.0000  0.0000  0.0000
11657SI     SI111657   3.495   3.824   0.121  0.0000  0.0000  0.0000
11658SI     SI111658   7.338   4.527   8.570  0.0000  0.0000  0.0000
11659SI     SI111659   7.001   9.047   0.888  0.0000  0.0000  0.0000
11660SI     SI111660   6.005   6.709   9.564  0.0000  0.0000  0.0000
11661SI     SI111661   1.155   3.113   1.173  0.0000  0.0000  0.0000
11662SI     SI111662   0.054   8.600   1.081  0.0000  0.0000  0.0000
11663SI     SI111663   7.283   9.399   0.724  0.0000  0.0000  0.0000
11664SI     SI111664   4.700   8.587   0.262  0.0000  0.0000  0.0000
11665SI     SI111665   2.313   0.819   0.257  0.0000  0.0000  0.0000
11666SI     SI111666   2.153   8.863   8.846  0.0000  0.0000  0.0000
11667SI     SI111667   6.935   7.922   1.213  0.0000  0.0000  0.0000
11668SI     SI111668   6.049   2.671   0.083  0.0000  0.0000  0.0000
11669SI     SI111669   5.438   5.596   8.761  0.0000  0.0000  0.0000
11670SI     SI111670   2.510   8.125   9.124  0.0000  0.0000  0.0000
11671SI     SI111671   0.423   8.913   8.887  0.0000  0.0000  0.0000
11672SI     SI111672   0.634   7.891   8.751  0.0000  0.0000  0.0000
11673SI     SI111673   6.608   6.744   0.518  0.0000  0.0000  0.0000
11674SI     SI111674   7.435   3.505   8.725  0.0000  0.0000  0.0000
11675SI     SI111675   4.894   7.804   9.225  0.0000  0.0000  0.0000
11676SI     SI111676   2.737   0.103   9.221  0.0000  0.0000  0.0000
11677SI     SI111677   2.402   5.907   0.585  0.0000  0.0000  0.0000
11678SI     SI111678   6.197   1.602   0.125  0.0000  0.0000  0.0000
11679SI     SI111679   2.153   7.862   8.971  0.0000  0.0000  0.0000
11680SI     SI111680   3.325   1.277   1.168  0.0000  0.0000  0.0000
11681SI     SI111681   6.236   6.207   8.612  0.0000  0.0000  0.0000
11682SI     SI111682   0.134   6.288   0.563  0.0000  0.0000  0.0000
11683SI     SI111683   5.036   6.763   8.786  0.0000  0.0000  0.0000
11684SI     SI111684   7.967   3.601   8.671  0.0000  0.0000  0.0000
11685SI     SI111685   7.398   5.857   9.142  0.0000  0.0000  0.0000
11686SI     SI111686   2.262   5.681   0.405  0.0000  0.0000  0.0000
11687SI     SI111687   6.534   5.583   1.356  0.0000  0.0000  0.0000
11688SI     SI111688   7.441   8.881   0.661  0.0000  0.0000  0.0000
11689SI     SI111689   9.030   7.138   9.268  0.0000  0.0000  0.0000
11690SI     SI111690   1.704   2.762   0.967  0.0000  0.0000  0.0000
11691SI     SI111691   2.340   7.634   0.138  0.0000  0.0000  0.0000
11692SI     SI111692   1.185   2.996   0.915  0.0000  0.0000  0.0000
11693SI     SI111693   8.696   5.259   8.635  0.0000  0.0000  0.0000
11694SI     SI111694   4.111   7.111   8.733  0.0000  0.0000  0.0000
11695SI     SI111695   3.790   7.574   9.068  0.0000  0.0000  0.0000
11696SI     SI111696   7.301   6.309   9.436  0.0000  0.0000  0.0000
11697SI     SI111697   5.285   8.529   0.288  0.0000  0.0000  0.0000
11698SI     SI111698   3.339   1.901   0.371  0.0000  0.0000  0.0000
11699SI     SI111699   1.889   5.974   0.532  0.0000  0.0000  0.0000
11700SI     SI111700   1.129   4.402   0.970  0.0000  0.0000  0.0000
11701SI     SI111701   8.024   3.505   8.374  0.0000  0.0000  0.0000
11702SI     SI111702   5.997   8.863   0.240  0.0000  0.0000  0.0000
11703SI     SI111703   0.732   8.824   8.885  0.0000  0.0000  0.0000
11704SI     SI111704   4.714   6.471   0.815  0.0000  0.0000  0.0000
11705SI     SI111705   0.330   8.573   1.210  0.0000  0.0000  0.0000
11706SI     SI111706   0.544   8.457   1.374  0.0000  0.0000  0.0000
11707SI     SI111707   3.355   4.078   9.394  0.0000  0.0000  0.0000
11708SI     SI111708   4.116   9.068   9.292  0.0000  0.0000  0.0000
11709SI     SI111709   0.535   6.840   9.354  0.0000  0.0000  0.0000
11710SI     SI111710   6.861   1.990   0.664  0.0000  0.0000  0.0000
11711SI     SI111711   6.887   8.828   0.689  0.0000  0.0000  0.0000
11712SI     SI111712   4.935   7.780   8.680  0.0000  0.0000  0.0000
11713SI     SI111713   9.110   6.643   0.830  0.0000  0.0000  0.0000
11714SI     SI111714   9.008   7.821   0.592  0.0000  0.0000  0.0000
11715SI     SI111715   4.443   6.016   1.088  0.0000  0.0000  0.0000
11716SI     SI111716   5.535   7.410   0.896  0.0000  0.0000  0.0000
11717SI     SI111717   1.913   7.063   8.579  0.0000  0.0000  0.0000
11718SI     SI111718   0.924   7.225   9.112  0.0000  0.0000  0.0000
11719SI     SI111719   0.864   5.158   0.006  0.0000  0.0000  0.0000
11720SI     SI111720   8.144   9.601   9.248  0.0000  0.0000  0.0000
11721SI     SI111721   8.381   0.380   8.970  0.0000  0.0000  0.0000
11722SI     SI111722   3.485   8.524   9.468  0.0000  0.0000  0.0000
11723SI     SI111723   0.728   3.187   0.320  0.0000  0.0000  0.0000
11724SI     SI111724   4.483   7.581   8.933  0.0000  0.0000  0.0000
11725SI     SI111725   5.490   3.611   8.236  0.0000  0.0000  0.0000
11726SI     SI111726   8.832   9.581   0.525  0.0000  0.0000  0.0000
11727SI     SI111727   0.259   1.021   1.216  0.0000  0.0000  0.0000
11728SI     SI111728   8.527   0.218   8.527  0.0000  0.0000  0.0000
11729SI     SI111729   3.661   1.897   0.377  0.0000  0.0000  0.0000
11730SI     SI111730   8.929   5.111   8.771  0.0000  0.0000  0.0000
11731SI     SI111731   4.825   6.474   0.046  0.0000  0.0000  0.0000
11732SI     SI111732   2.929   3.417   9.478  0.0000  0.0000  0.0000
11733SI     SI111733   7.395   0.607   9.535  0.0000  0.0000  0.0000
11734SI     SI111734   7.625   4.718   0.107  0.0000  0.0000  0.0000
11735SI     SI111735   4.006   5.669   8.559  0.0000  0.0000  0.0000
11736SI     SI111736   2.456   3.372   0.009  0.0000  0.0000  0.0000
11737SI     SI111737   5.175   5.074   0.933  0.0000  0.0000  0.0000
11738SI     SI111738   6.069   6.439   8.740  0.0000  0.0000  0.0000
11739SI     SI111739   6.990   8.675   9.178  0.0000  0.0000  0.0000
11740SI     SI111740   5.791   4.608   0.136  0.0000  0.0000  0.0000
11741SI     SI111741   0.815   0.403   1.112  0.0000  0.0000  0.0000
11742SI     SI111742   0.673   5.072   9.106  0.0000  0.0000  0.0000
11743SI     SI111743   0.829   4.069   9.477  0.0000  0.0000  0.0000
11744SI     SI111744   7.269   1.094   8.223  0.0000  0.0000  0.0000
11745SI     SI111745   2.001   7.040   0.295  0.0000  0.0000  0.0000
11746SI     SI111746   8.956   8.451   0.686  0.0000  0.0000  0.0000
11747SI     SI111747   8.429   6.860   9.476  0.0000  0.0000  0.0000
11748SI     SI111748   2.627   0.262   8.816  0.0000  0.0000  0.0000
11749SI     SI111749   7.704   4.998   9.580  0.0000  0.0000  0.0000
11750SI     SI111750   0.691   9.222   0.575  0.0000  0.0000  0.0000
11751SI     SI111751   7.563   5.842   8.883  0.0000  0.0000  0.0000
11752SI     SI111752   1.275   1.132   0.936  0.0000  0.0000  0.0000
11753SI     SI111753   8.893   7.872   9.246  0.0000  0.0000  0.0000
11754SI     SI111754   7.897   2.120   0.949  0.0000  0.0000  0.0000
11755SI     SI111755   5.458   5.876   8.648  0.0000  0.0000  0.0000
11756SI     SI111756   3.153   5.857   8.191  0.0000  0.0000  0.0000
11757SI     SI111757   4.548   6.559   0.369  0.0000  0.0000  0.0000
11758SI     SI111758   0.475   1.688   8.537  0.0000  0.0000  0.0000
11759SI     SI111759   4.810   2.672   0.141  0.0000  0.0000  0.0000
11760SI     SI111760   7.213   1.937   8.576  0.0000  0.0000  0.0000
11761SI     SI111761   8.160   7.814   9.317  0.0000  0.0000  0.0000
11762SI     SI111762   2.180   4.401   9.097  0.0000  0.0000  0.0000
11763SI     SI111763   3.461   0.512   9.336  0.0000  0.0000  0.0000
11764SI     SI111764   8.318   9.240   0.393  0.0000  0.0000  0.0000
11765SI     SI111765   1.314   6.748   1.196  0.0000  0.0000  0.0000
11766SI     SI111766   4.873   3.030   8.748  0.0000  0.0000  0.0000
11767SI     SI111767   6.562   4.658   0.948  0.0000  0.0000  0.0000
11768SI     SI111768   5.427   0.109   0.615  0.0000  0.0000  0.0000
11769SI     SI111769   6.158   7.196   9.458  0.0000  0.0000  0.0000
11770SI     SI111770   3.034   0.535   0.075  0.0000  0.0000  0.0000
11771SI     SI111771   1.176   7.534   0.058  0.0000  0.0000  0.0000
11772SI     SI111772   4.626   6.886   8.607  0.0000  0.0000  0.0000
11773SI     SI111773   4.631   4.207   8.691  0.0000  0.0000  0.0000
11774SI     SI111774   0.343   1.288   0.176  0.0000  0.0000  0.0000
11775SI     SI111775   1.517   3.040   8.884  0.0000  0.0000  0.0000
11776SI     SI111776   0.713   8.730   0.526  0.0000  0.0000  0.0000
11777SI     SI111777   3.370   3.990   9.108  0.0000  0.0000  0.0000
11778SI     SI111778   4.525   6.353   0.610  0.0000  0.0000  0.0000
11779SI     SI111779   9.278   9.561   0.638  0.0000  0.0000  0.0000
11780SI     SI111780   4.305   6.798   0.697  0.0000  0.0000  0.0000
11781SI     SI111781   5.779   0.250   0.266  0.0000  0.0000  0.0000
11782SI     SI111782   9.436   1.955   8.493  0.0000  0.0000  0.0000
11783SI     SI111783   8.145   3.891   8.272  0.0000  0.0000  0.0000
11784SI     SI111784   6.222   4.722   0.602  0.0000  0.0000  0.0000
11785SI     SI111785   3.786   2.962   8.578  0.0000  0.0000  0.0000
11786SI     SI111786   5.726   9.514   9.478  0.0000  0.0000  0.0000
11787SI     SI111787   7.822   7.275   8.157  0.0000  0.0000  0.0000
11788SI     SI111788   7.979   8.702   0.428  0.0000  0.0000  0.0000
11789SI     SI111789   0.504   4.277   0.699  0.0000  0.0000  0.0000
11790SI     SI111790   6.993   2.835   0.235  0.0000  0.0000  0.0000
11791SI     SI111791   1.955   4.823   8.835  0.0000  0.0000  0.0000
11792SI     SI111792   1.789   7.593   9.059  0.0000  0.0000  0.0000
11793SI     SI111793   5.613   2.498   0.613  0.0000  0.0000  0.0000
11794SI     SI111794   4.491   3.775   8.426  0.0000  0.0000  0.0000
11795SI     SI111795   3.993   3.188   0.557  0.0000  0.0000  0.0000
11796SI     SI111796   6.326   8.884   9.328  0.0000  0.0000  0.0000
11797SI     SI111797   1.735   1.949   8.801  0.0000  0.0000  0.0000
11798SI     SI111798   2.735   6.715   0.743  0.0000  0.0000  0.0000
11799SI     SI111799   4.594   6.491   8.929  0.0000  0.0000  0.0000
11800SI     SI111800   3.723   3.362   8.994  0.0000  0.0000  0.0000
11801SI     SI111801   2.654   8.480   8.982  0.0000  0.0000  0.0000
11802SI     SI111802   2.513   4.556   8.317  0.0000  0.0000  0.0000
11803SI     SI111803   3.067   6.311   9.349  0.0000  0.0000  0.0000
11804SI     SI111804   7.783   2.388   0.830  0.0000  0.0000  0.0000
11805SI     SI111805   7.326   2.692   9.092  0.0000  0.0000  0.0000
11806SI     SI111806   5.764   8.321   8.877  0.0000  0.0000  0.0000
11807SI     SI111807   4.023   0.426   9.329  0.0000  0.0000  0.0000
11808SI     SI111808   2.484   7.837   9.560  0.0000  0.0000  0.0000
11809SI     SI111809   0.020   5.090   9.298  0.0000  0.0000  0.0000
11810SI     SI111810   9.494   8.975   0.216  0.0000  0.0000  0.0000
11811SI     SI111811   3.158   3.438   0.333  0.0000  0.0000  0.0000
11812SI     SI111812   3.495   2.561   9.338  0.0000  0.0000  0.0000
11813SI     SI111813   5.218   4.899   9.093  0.0000  0.0000  0.0000
11814SI     SI111814   4.150   2.751   8.339  0.0000  0.0000  0.0000
11815SI     SI111815   8.013   9.223   0.496  0.0000  0.0000  0.0000
11816SI     SI111816   8.358   2.700   0.767  0.0000  0.0000  0.0000
11817SI     SI111817   6.448   0.038   9.507  0.0000  0.0000  0.0000
11818SI     SI111818   9.169   9.058   0.624  0.0000  0.0000  0.0000
11819SI     SI111819   7.634   3.133   0.987  0.0000  0.0000  0.0000
11820SI     SI111820   4.347   6.743   9.518  0.0000  0.0000  0.0000
11821SI     SI111821   2.648   3.763   0.515  0.0000  0.0000  0.0000
11822SI     SI111822   5.308   8.209   0.673  0.0000  0.0000  0.0000
11823SI     SI111823   5.696   1.851   8.522  0.0000  0.0000  0.0000
11824SI     SI111824   8.559   3.375   0.274  0.0000  0.0000  0.0000
11825SI     SI111825   7.098   8.164   0.595  0.0000  0.0000  0.0000
11826SI     SI111826   5.088   7.307   0.602  0.0000  0.0000  0.0000
11827SI     SI111827   0.173   0.856   0.722  0.0000  0.0000  0.0000
11828SI     SI111828   4.391   8.270   0.736  0.0000  0.0000  0.0000
11829SI     SI111829   7.080   5.197   0.742  0.0000  0.0000  0.0000
11830SI     SI111830   2.903   3.842   9.132  0.0000  0.0000  0.0000
11831SI     SI111831   8.894   6.296   1.081  0.0000  0.0000  0.0000
11832SI     SI111832   7.462   1.566   9.042  0.0000  0.0000  0.0000
11833SI     SI111833   0.029   8.366   9.031  0.0000  0.0000  0.0000
11834SI     SI111834   3.389   3.686   9.037  0.0000  0.0000  0.0000
11835SI     SI111835   1.973   4.126   8.323  0.0000  0.0000  0.0000
11836SI     SI111836   4.128   5.370   9.344  0.0000  0.0000  0.0000
11837SI     SI111837   2.307   0.289   0.172  0.0000  0.0000  0.0000
11838SI     SI111838   4.731   2.219   9.517  0.0000  0.0000  0.0000
11839SI     SI111839   0.708   0.243   0.391  0.0000  0.0000  0.0000
11840SI     SI111840   8.117   4.177   9.599  0.0000  0.0000  0.0000
11841SI     SI111841   7.892   7.982   0.990  0.0000  0.0000  0.0000
11842SI     SI111842   5.330   2.217   9.003  0.0000  0.0000  0.0000
11843SI     SI111843   5.058   1.407   0.638  0.0000  0.0000  0.0000
11844SI     SI111844   8.552   0.096   0.546  0.0000  0.0000  0.0000
11845SI     SI111845   6.457   5.542   0.641  0.0000  0.0000  0.0000
11846SI     SI111846   2.717   2.686   1.005  0.0000  0.0000  0.0000
11847SI     SI111847   0.792   6.984   9.441  0.0000  0.0000  0.0000
11848SI     SI111848   5.181   5.929   0.524  0.0000  0.0000  0.0000
11849SI     SI111849   6.334   5.761   8.805  0.0000  0.0000  0.0000
11850SI     SI111850   6.182   3.341   0.308  0.0000  0.0000  0.0000
11851SI     SI111851   0.194   6.243   0.250  0.0000  0.0000  0.0000
11852SI     SI111852   0.037   0.314   9.162  0.0000  0.0000  0.0000
11853SI     SI111853   2.550   6.738   9.582  0.0000  0.0000  0.0000
11854SI     SI111854   8.875   0.536   8.910  0.0000  0.0000  0.0000
11855SI     SI111855   9.023   8.513   0.399  0.0000  0.0000  0.0000
11856SI     SI111856   0.077   6.930   8.819  0.0000  0.0000  0.0000
11857SI     SI111857   8.918   1.699   0.230  0.0000  0.0000  0.0000
11858SI     SI111858   3.608   5.388   1.126  0.0000  0.0000  0.0000
11859SI     SI111859   4.648   5.447   9.208  0.0000  0.0000  0.0000
11860SI     SI111860   1.477   2.017   0.388  0.0000  0.0000  0.0000
11861SI     SI111861   7.363   7.666   0.802  0.0000  0.0000  0.0000
11862SI     SI111862   3.485   4.189   8.477  0.0000  0.0000  0.0000
11863SI     SI111863   7.391   4.039   8.340  0.0000  0.0000  0.0000
11864SI     SI111864   4.344   7.278   8.739  0.0000  0.0000  0.0000
11865SI     SI111865   6.904   2.180   1.290  0.0000  0.0000  0.0000
11866SI     SI111866   1.061   3.832   0.727  0.0000  0.0000  0.0000
11867SI     SI111867   4.346   5.668   0.818  0.0000  0.0000  0.0000
11868SI     SI111868   0.418   5.499   9.220  0.0000  0.0000  0.0000
11869SI     SI111869   5.115   3.863   9.541  0.0000  0.0000  0.0000
11870SI     SI111870   8.693   1.701   9.411  0.0000  0.0000  0.0000
11871SI     SI111871   3.131   2.355   0.179  0.0000  0.0000  0.0000
11872SI     SI111872   7.436   1.451   0.096  0.0000  0.0000  0.0000
11873SI     SI111873   7.563   7.172   8.304  0.0000  0.0000  0.0000
11874SI     SI111874   4.215   6.928   8.206  0.0000  0.0000  0.0000
11875SI     SI111875   1.422   0.720   8.381  0.0000  0.0000  0.0000
11876SI     SI111876   9.014   4.681   0.669  0.0000  0.0000  0.0000
11877SI     SI111877   1.555   9.347   8.464  0.0000  0.0000  0.0000
11878SI     SI111878   8.112   5.386   8.476  0.0000  0.0000  0.0000
11879SI     SI111879   1.809   4.108   8.754  0.0000  0.0000  0.0000
11880SI     SI111880   6.706   0.459   9.383  0.0000  0.0000  0.0000
11881SI     SI111881   8.067   4.716   1.060  0.0000  0.0000  0.0000
11882SI     SI111882   6.670   0.905   8.437  0.0000  0.0000  0.0000
11883SI     SI111883   0.438   8.241   9.025  0.0000  0.0000  0.0000
11884SI     SI111884   2.643   8.647   0.271  0.0000  0.0000  0.0000
11885SI     SI111885   4.498   6.262   1.249  0.0000  0.0000  0.0000
11886SI     SI111886   8.888   6.864   9.317  0.0000  0.0000  0.0000
11887SI     SI111887   7.655   2.298   9.100  0.0000  0.0000  0.0000
11888SI     SI111888   3.863   5.811   9.117  0.0000  0.0000  0.0000
11889SI     SI111889   6.937   4.111   9.304  0.0000  0.0000  0.0000
11890SI     SI111890   8.313   0.852   0.209  0.0000  0.0000  0.0000
11891SI     SI111891   0.249   9.420   8.311  0.0000  0.0000  0.0000
11892SI     SI111892   5.463   1.782   1.093  0.0000  0.0000  0.0000
11893SI     SI111893   0.532   9.042   8.347  0.0000  0.0000  0.0000
11894SI     SI111894   1.777   2.889   8.844  0.0000  0.0000  0.0000
11895SI     SI111895   4.601   3.970   0.025  0.0000  0.0000  0.0000
11896SI     SI111896   9.359   6.051   0.106  0.0000  0.0000  0.0000
11897SI     SI111897   5.015   2.075   8.414  0.0000  0.0000  0.0000
11898SI     SI111898   1.900   2.094   1.172  0.0000  0.0000  0.0000
11899SI     SI111899   0.494   6.323   0.293  0.0000  0.0000  0.0000
11900SI     SI111900   7.204   6.165   8.648  0.0000  0.0000  0.0000
11901SI     SI111901   0.390   0.835   0.276  0.0000  0.0000  0.0000
11902SI     SI111902   5.040   0.903   8.907  0.0000  0.0000  0.0000
11903SI     SI111903   6.631   2.098   0.853  0.0000  0.0000  0.0000
11904SI     SI111904   5.612   1.195   0.406  0.0000  0.0000  0.0000
11905SI     SI111905   3.037   1.399   8.964  0.0000  0.0000  0.0000
11906SI     SI111906   5.871   9.499   0.581  0.0000  0.0000  0.0000
11907SI     SI111907   7.380   0.799   0.160  0.0000  0.0000  0.0000
11908SI     SI111908   5.324   1.914   9.091  0.0000  0.0000  0.0000
11909SI     SI111909   9.580   6.457   8.728  0.0000  0.0000  0.0000
11910SI     SI111910   4.089   1.285   0.216  0.0000  0.0000  0.0000
11911SI     SI111911   3.825   2.280   9.304  0.0000  0.0000  0.0000
11912SI     SI111912   6.095   1.051   8.841  0.0000  0.0000  0.0000
11913SI     SI111913   5.841   8.383   9.364  0.0000  0.0000  0.0000
11914SI     SI111914   9.335   9.537   9.112  0.0000  0.0000  0.0000
11915SI     SI111915   7.569   3.656   0.467  0.0000  0.0000  0.0000
11916SI     SI111916   6.658   4.332   0.632  0.0000  0.0000  0.0000
11917SI     SI111917   8.205   6.217   0.277  0.0000  0.0000  0.0000
11918SI     SI111918   5.261   7.101   9.589  0.0000  0.0000  0.0000
11919SI     SI111919   5.357   5.201   8.795  0.0000  0.0000  0.0000
11920SI     SI111920   0.694   7.519   0.871  0.0000  0.0000  0.0000
11921SI     SI111921   6.841   2.125   9.363  0.0000  0.0000  0.0000
11922SI     SI111922   3.855   7.811   0.566  0.0000  0.0000  0.0000
11923SI     SI111923   2.723   5.978   1.220  0.0000  0.0000  0.0000
11924SI     SI111924   8.197   3.694   0.764  0.0000  0.0000  0.0000
11925SI     SI111925   5.377   5.352   9.279  0.0000  0.0000  0.0000
11926SI     SI111926   2.004   4.400   9.359  0.0000  0.0000  0.0000
11927SI     SI111927   1.116   0.281   0.385  0.0000  0.0000  0.0000
11928SI     SI111928   8.343   4.838   9.301  0.0000  0.0000  0.0000
11929SI     SI111929   7.564   1.540   0.566  0.0000  0.0000  0.0000
11930SI     SI111930   6.211   8.486   0.265  0.0000  0.0000  0.0000
11931SI     SI111931   8.201   0.198   0.314  0.0000  0.0000  0.0000
11932SI     SI111932   5.780   7.131   0.191  0.0000  0.0000  0.0000
11933SI     SI111933   7.627   2.599   1.001  0.0000  0.0000  0.0000
11934SI     SI111934   0.999   3.988   1.174  0.0000  0.0000  0.0000
11935SI     SI111935   1.115   7.905   8.430  0.0000  0.0000  0.0000
11936SI     SI111936   4.159   9.040   1.158  0.0000  0.0000  0.0000
11937SI     SI111937   7.310   7.257   0.077  0.0000  0.0000  0.0000
11938SI     SI111938   1.534   7.547   9.200  0.0000  0.0000  0.0000
11939SI     SI111939   2.552   9.536   9.066  0.0000  0.0000  0.0000
11940SI     SI111940   2.464   2.046   1.162  0.0000  0.0000  0.0000
11941SI     SI111941   4.582   8.793   8.769  0.0000  0.0000  0.0000
11942SI     SI111942   0.862   3.802   8.535  0.0000  0.0000  0.0000
11943SI     SI111943   4.235   1.758   0.133  0.0000  0.0000  0.0000
11944SI     SI111944   5.824   8.831   8.639  0.0000  0.0000  0.0000
11945SI     SI111945   7.830   0.222   8.523  0.0000  0.0000  0.0000
11946SI     SI111946   1.477   1.368   9.231  0.0000  0.0000  0.0000
11947SI     SI111947   0.485   3.901   1.216  0.0000  0.0000  0.0000
11948SI     SI111948   0.277   7.188   1.136  0.0000  0.0000  0.0000
11949SI     SI111949   6.850   4.733   9.128  0.0000  0.0000  0.0000
11950SI     SI111950   8.863   1.947   1.014  0.0000  0.0000  0.0000
11951SI     SI111951   6.733   7.333   1.172  0.0000  0.0000  0.0000
11952SI     SI111952   5.482   0.943   8.559  0.0000  0.0000  0.0000
11953SI     SI111953   8.776   8.621   1.094  0.0000  0.0000  0.0000
11954SI     SI111954   6.592   7.029   9.260  0.0000  0.0000  0.0000
11955SI     SI111955   6.437   2.959   8.956  0.0000  0.0000  0.0000
11956SI     SI111956   3.479   0.054   9.256  0.0000  0.0000  0.0000
11957SI     SI111957   4.047   7.611   0.446  0.0000  0.0000  0.0000
11958SI     SI111958   2.004   8.748   0.771  0.0000  0.0000  0.0000
11959SI     SI111959   1.331   3.688   8.531  0.0000  0.0000  0.0000
11960SI     SI111960   7.986   7.439   8.360  0.0000  0.0000  0.0000
11961SI     SI111961   6.120   0.244   8.557  0.0000  0.0000  0.0000
11962SI     SI111962   8.423   1.478   1.261  0.0000  0.0000  0.0000
11963SI     SI111963   5.796   7.539   8.519  0.0000  0.0000  0.0000
11964SI     SI111964   1.688   4.528   8.609  0.0000  0.0000  0.0000
11965SI     SI111965   1.398   0.672   0.255  0.0000  0.0000  0.0000
11966SI     SI111966   4.700   3.906   8.229  0.0000  0.0000  0.0000
11967SI     SI111967   9.464   2.714   8.331  0.0000  0.0000  0.0000
11968SI     SI111968   6.707   5.183   8.919  0.0000  0.0000  0.0000
11969SI     SI111969   8.945   7.450   9.589  0.0000  0.0000  0.0000
11970SI     SI111970   0.167   0.157   0.549  0.0000  0.0000  0.0000
11971SI     SI111971   0.178   9.439   9.241  0.0000  0.0000  0.0000
11972SI     SI111972   0.387   2.392   0.913  0.0000  0.0000  0.0000
11973SI     SI111973   5.599   1.798   9.201  0.0000  0.0000  0.0000
11974SI     SI111974   9.186   7.323   9.442  0.0000  0.0000  0.0000
11975SI     SI111975   1.177   3.618   0.282  0.0000  0.0000  0.0000
11976SI     SI111976   4.335   2.901   9.079  0.0000  0.0000  0.0000
11977SI     SI111977   1.941   8.295   0.766  0.0000  0.0000  0.0000
11978SI     SI111978   8.547   1.939   1.039  0.0000  0.0000  0.0000
11979SI     SI111979   4.708   5.523   8.631  0.0000  0.0000  0.0000
11980SI     SI111980   2.411   1.647   8.880  0.0000  0.0000  0.0000
11981SI     SI111981   3.343   7.190   8.498  0.0000  0.0000  0.0000
11982SI     SI111982   7.564   4.747   8.553  0.0000  0.0000  0.0000
11983SI     SI111983   4.958   7.016   9.541  0.0000  0.0000  0.0000
11984SI     SI111984   0.957   4.274   0.747  0.0000  0.0000  0.0000
11985SI     SI111985   3.222   3.615   8.551  0.0000  0.0000  0.0000
11986SI     SI111986   4.337   6.077   8.722  0.0000  0.0000  0.0000
11987SI     SI111987   5.892   7.766   9.580  0.0000  0.0000  0.0000
11988SI     SI111988   8.025   1.309   9.340  0.0000  0.0000  0.0000
11989SI     SI111989   7.879   8.449   0.601  0.0000  0.0000  0.0000
11990SI     SI111990   6.822   7.845   0.121  0.0000  0.0000  0.0000
11991SI     SI111991   2.660   9.551   8.789  0.0000  0.0000  0.0000
11992SI     SI111992   5.118   6.317   8.607  0.0000  0.0000  0.0000
11993SI     SI111993   1.929   2.279   8.502  0.0000  0.0000  0.0000
11994SI     SI111994   3.667   8.488   0.623  0.0000  0.0000  0.0000
11995SI     SI111995   1.192   9.366   8.917  0.0000  0.0000  0.0000
11996SI     SI111996   1.749   6.636   1.411  0.0000  0.0000  0.0000
11997SI     SI111997   3.691   5.124   1.015  0.0000  0.0000  0.0000
11998SI     SI111998   8.229   5.748   9.598  0.0000  0.0000  0.0000
11999SI     SI111999   2.685   6.032   0.526  0.0000  0.0000  0.0000
12000SI     SI112000   9.177   2.680   8.919  0.0000  0.0000  0.0000
12001SI     SI112001   6.408   5.184   9.588  0.0000  0.0000  0.0000
12002SI     SI112002   5.734   4.612   1.096  0.0000  0.0000  0.0000
12003SI     SI112003   8.677   7.946   0.108  0.0000  0.0000  0.0000
12004SI     SI112004   5.021   6.795   9.357  0.0000  0.0000  0.0000
12005SI     SI112005   4.402   7.485   0.770  0.0000  0.0000  0.0000
12006SI     SI112006   7.582   5.935   0.011  0.0000  0.0000  0.0000
12007SI     SI112007   5.606   3.047   8.726  0.0000  0.0000  0.0000
12008SI     SI112008   8.334   5.506   0.533  0.0000  0.0000  0.0000
12009SI     SI112009   8.390   1.102   8.231  0.0000  0.0000  0.0000
12010SI     SI112010   7.987   6.134   9.399  0.0000  0.0000  0.0000
12011SI     SI112011   5.610   0.746   8.767  0.0000  0.0000  0.0000
12012SI     SI112012   1.486   9.108   8.666  0.0000  0.0000  0.0000
12013SI     SI112013   9.010   5.516   0.545  0.0000  0.0000  0.0000
12014SI     SI112014   3.589   2.591   0.663  0.0000  0.0000  0.0000
12015SI     SI112015   4.395   0.833   0.016  0.0000  0.0000  0.0000
12016SI     SI112016   6.822   8.682   0.217  0.0000  0.0000  0.0000
12017SI     SI112017   5.893   0.604   8.724  0.0000  0.0000  0.0000
12018SI     SI112018   0.373   0.007   0.179  0.0000  0.0000  0.0000
12019SI     SI112019   6.651   7.332   8.430  0.0000  0.0000  0.0000
12020SI     SI112020   7.443   4.367   0.714  0.0000  0.0000  0.0000
12021SI     SI112021   6.371   5.320   8.546  0.0000  0.0000  0.0000
12022SI     SI112022   8.668   3.438   9.587  0.0000  0.0000  0.0000
12023SI     SI112023   8.295   6.488   0.941  0.0000  0.0000  0.0000
12024SI     SI112024   7.325   7.357   9.001  0.0000  0.0000  0.0000
12025SI     SI112025   1.880   5.216   0.848  0.0000  0.0000  0.0000
12026SI     SI112026   2.129   9.177   0.566  0.0000  0.0000  0.0000
12027SI     SI112027   1.563   1.212   0.271  0.0000  0.0000  0.0000
12028SI     SI112028   9.456   7.335   9.602  0.0000  0.0000  0.0000
12029SI     SI112029   0.748   3.753   9.124  0.0000  0.0000  0.0000
12030SI     SI112030   1.429   7.260   8.902  0.0000  0.0000  0.0000
12031SI     SI112031   1.375   0.629   0.987  0.0000  0.0000  0.0000
12032SI     SI112032   5.840   6.351   8.928  0.0000  0.0000  0.0000
12033SI     SI112033   0.829   2.870   9.095  0.0000  0.0000  0.0000
12034SI     SI112034   5.002   1.504   1.303  0.0000  0.0000  0.0000
12035SI     SI112035   3.867   6.719   0.158  0.0000  0.0000  0.0000
12036SI     SI112036   0.450   4.026   8.489  0.0000  0.0000  0.0000
12037SI     SI112037   7.892   5.726   0.755  0.0000  0.0000  0.0000
12038SI     SI112038   0.125   7.399   0.429  0.0000  0.0000  0.0000
12039SI     SI112039   0.233   5.150   0.958  0.0000  0.0000  0.0000
12040SI     SI112040   6.896   5.870   9.552  0.0000  0.0000  0.0000
12041SI     SI112041   2.605   0.391   0.232  0.0000  0.0000  0.0000
12042SI     SI112042   3.666   8.468   1.397  0.0000  0.0000  0.0000
12043SI     SI112043   2.822   8.931   1.020  0.0000  0.0000  0.0000
12044SI     SI112044   0.185   7.245   8.566  0.0000  0.0000  0.0000
12045SI     SI112045   2.515   7.165   0.356  0.0000  0.0000  0.0000
12046SI     SI112046   8.939   1.847   0.497  0.0000  0.0000  0.0000
12047SI     SI112047   8.995   4.822   8.868  0.0000  0.0000  0.0000
12048SI     SI112048   1.208   4.580   9.469  0.0000  0.0000  0.0000
12049SI     SI112049   4.985   6.056   8.506  0.0000  0.0000  0.0000
12050SI     SI112050   4.168   9.015   0.671  0.0000  0.0000  0.0000
12051SI     SI112051   6.989   3.673   0.588  0.0000  0.0000  0.0000
12052SI     SI112052   9.595   3.425   9.211  0.0000  0.0000  0.0000
12053SI     SI112053   0.706   5.388   0.908  0.0000  0.0000  0.0000
12054SI     SI112054   0.235   5.597   0.740  0.0000  0.0000  0.0000
12055SI     SI112055   1.238   0.994   9.528  0.0000  0.0000  0.0000
12056SI     SI112056   4.207   0.453   0.257  0.0000  0.0000  0.0000
12057SI     SI112057   4.409   5.914   9.520  0.0000  0.0000  0.0000
12058SI     SI112058   0.435   8.215   0.961  0.0000  0.0000  0.0000
12059SI     SI112059   1.100   6.068   8.895  0.0000  0.0000  0.0000
12060SI     SI112060   0.868   0.820   0.071  0.0000  0.0000  0.0000
12061SI     SI112061   4.462   5.757   0.153  0.0000  0.0000  0.0000
12062SI     SI112062   1.056   8.945   0.480  0.0000  0.0000  0.0000
12063SI     SI112063   3.963   7.716   9.483  0.0000  0.0000  0.0000
12064SI     SI112064   2.962   1.421   0.872  0.0000  0.0000  0.0000
12065SI     SI112065   5.070   7.334   9.205  0.0000  0.0000  0.0000
12066SI     SI112066   6.683   2.971   0.085  0.0000  0.0000  0.0000
12067SI     SI112067   3.056   6.965   1.093  0.0000  0.0000  0.0000
12068SI     SI112068   4.250   4.024   0.986  0.0000  0.0000  0.0000
12069SI     SI112069   0.707   0.412   8.893  0.0000  0.0000  0.0000
12070SI     SI112070   8.966   6.995   8.231  0.0000  0.0000  0.0000
12071SI     SI112071   2.506   6.043   0.066  0.0000  0.0000  0.0000
12072SI     SI112072   4.044   3.003   9.599  0.0000  0.0000  0.0000
12073SI     SI112073   2.184   2.798   1.113  0.0000  0.0000  0.0000
12074SI     SI112074   2.516   5.577   0.800  0.0000  0.0000  0.0000
12075SI     SI112075   8.347   0.266   0.998  0.0000  0.0000  0.0000
12076SI     SI112076   0.599   0.760   8.205  0.0000  0.0000  0.0000
12077SI     SI112077   4.180   4.584   8.931  0.0000  0.0000  0.0000
12078SI     SI112078   0.077   6.770   0.806  0.0000  0.0000  0.0000
12079SI     SI112079   6.689   5.732   8.555  0.0000  0.0000  0.0000
12080SI     SI112080   4.391   2.480   8.687  0.0000  0.0000  0.0000
12081SI     SI112081   9.310   0.487   0.307  0.0000  0.0000  0.0000
12082SI     SI112082   7.382   1.196   9.245  0.0000  0.0000  0.0000
12083SI     SI112083   5.037   2.843   1.183  0.0000  0.0000  0.0000
12084SI     SI112084   0.036   8.868   9.230  0.0000  0.0000  0.0000
12085SI     SI112085   0.941   5.907   8.294  0.0000  0.0000  0.0000
12086SI     SI112086   6.378   2.856   8.483  0.0000  0.0000  0.0000
12087SI     SI112087   5.836   0.503   0.112  0.0000  0.0000  0.0000
12088SI     SI112088   6.263   6.448   9.276  0.0000  0.0000  0.0000
12089SI     SI112089   9.420   8.440   0.765  0.0000  0.0000  0.0000
12090SI     SI112090   1.322   1.911   8.460  0.0000  0.0000  0.0000
12091SI     SI112091   8.628   3.256   9.082  0.0000  0.0000  0.0000
12092SI     SI112092   9.023   1.377   0.549  0.0000  0.0000  0.0000
12093SI     SI112093   0.363   8.439   0.288  0.0000  0.0000  0.0000
12094SI     SI112094   3.268   8.500   0.316  0.0000  0.0000  0.0000
12095SI     SI112095   6.853   5.819   8.791  0.0000  0.0000  0.0000
12096SI     SI112096   2.901   8.664   1.169  0.0000  0.0000  0.0000
12097SI     SI112097   7.153   0.796   0.806  0.0000  0.0000  0.0000
12098SI     SI112098   6.577   2.412   9.075  0.0000  0.0000  0.0000
12099SI     SI112099   2.002   3.353   0.611  0.0000  0.0000  0.0000
12100SI     SI112100   2.343   7.214   0.963  0.0000  0.0000  0.0000
12101SI     SI112101   1.234   1.214   9.126  0.0000  0.0000  0.0000
12102SI     SI112102   8.542   0.589   9.453  0.0000  0.0000  0.0000
12103SI     SI112103   3.537   9.016   1.115  0.0000  0.0000  0.0000
12104SI     SI112104   1.217   9.152   0.314  0.0000  0.0000  0.0000
12105SI     SI112105   4.627   4.667   0.013  0.0000  0.0000  0.0000
12106SI     SI112106   8.291   4.600   9.504  0.0000  0.0000  0.0000
12107SI     SI112107   9.423   2.245   8.412  0.0000  0.0000  0.0000
12108SI     SI112108   7.864   3.565   1.089  0.0000  0.0000  0.0000
12109SI     SI112109   1.703   0.258   8.821  0.0000  0.0000  0.0000
12110SI     SI112110   4.931   9.091   8.718  0.0000  0.0000  0.0000
12111SI     SI112111   5.079   4.773   0.089  0.0000  0.0000  0.0000
12112SI     SI112112   7.190   1.496   8.406  0.0000  0.0000  0.0000
12113SI     SI112113   3.178   7.916   0.772  0.0000  0.0000  0.0000
12114SI     SI112114   7.362   5.671   0.371  0.0000  0.0000  0.0000
12115SI     SI112115   0.261   1.115   9.533  0.0000  0.0000  0.0000
12116SI     SI112116   9.379   9.376   0.883  0.0000  0.0000  0.0000
12117SI     SI112117   8.546   7.499   1.032  0.0000  0.0000  0.0000
12118SI     SI112118   0.763   9.171   0.152  0.0000  0.0000  0.0000
12119SI     SI112119   6.243   2.661   8.681  0.0000  0.0000  0.0000
12120SI     SI112120   4.758   1.296   0.998  0.0000  0.0000  0.0000
12121SI     SI112121   6.919   1.215   0.661  0.0000  0.0000  0.0000
12122SI     SI112122   3.206   0.590   0.884  0.0000  0.0000  0.0000
12123SI     SI112123   0.129   5.242   9.552  0.0000  0.0000  0.0000
12124SI     SI112124   4.009   5.194   8.622  0.0000  0.0000  0.0000
12125SI     SI112125   5.597   3.178   8.175  0.0000  0.0000  0.0000
12126SI     SI112126   4.386   7.743   0.169  0.0000  0.0000  0.0000
12127SI     SI112127   4.995   8.481   0.187  0.0000  0.0000  0.0000
12128SI     SI112128   6.979   9.144   0.101  0.0000  0.0000  0.0000
12129SI     SI112129   7.084   8.409   9.308  0.0000  0.0000  0.0000
12130SI     SI112130   0.242   4.441   8.558  0.0000  0.0000  0.0000
12131SI     SI112131   6.530   6.682   8.990  0.0000  0.0000  0.0000
12132SI     SI112132   0.531   1.444   0.566  0.0000  0.0000  0.0000
12133SI     SI112133   2.580   3.278   9.178  0.0000  0.0000  0.0000
12134SI     SI112134   7.970   0.823   9.307  0.0000  0.0000  0.0000
12135SI     SI112135   5.043   5.677   1.017  0.0000  0.0000  0.0000
12136SI     SI112136   5.756   3.478   8.495  0.0000  0.0000  0.0000
12137SI     SI112137   4.400   5.033   0.729  0.0000  0.0000  0.0000
12138SI     SI112138   8.121   3.129   0.989  0.0000  0.0000  0.0000
12139SI     SI112139   0.343   5.700   0.223  0.0000  0.0000  0.0000
12140SI     SI112140   0.594   0.550   8.640  0.0000  0.0000  0.0000
12141SI     SI112141   7.968   8.485   9.436  0.0000  0.0000  0.0000
12142SI     SI112142   8.537   4.049   8.530  0.0000  0.0000  0.0000
12143SI     SI112143   6.769   5.289   9.325  0.0000  0.0000  0.0000
12144SI     SI112144   8.615   2.099   8.937  0.0000  0.0000  0.0000
12145SI     SI112145   9.175   5.332   0.224  0.0000  0.0000  0.0000
12146SI     SI112146   9.373   1.597   1.073  0.0000  0.0000  0.0000
12147SI     SI112147   2.666   7.718   0.532  0.0000  0.0000  0.0000
12148SI     SI112148   3.135   0.101   8.696  0.0000  0.0000  0.0000
12149SI     SI112149   1.149   1.628   8.859  0.0000  0.0000  0.0000
12150SI     SI112150   7.013   5.194   1.036  0.0000  0.0000  0.0000
12151SI     SI112151   6.255   0.890   9.412  0.0000  0.0000  0.0000
12152SI     SI112152   8.410   6.903   8.669  0.0000  0.0000  0.0000
12153SI     SI112153   9.264   7.861   0.046  0.0000  0.0000  0.0000
12154SI     SI112154   4.094   1.195   0.503  0.0000  0.0000  0.0000
12155SI     SI112155   4.616   4.960   8.876  0.0000  0.0000  0.0000
12156SI     SI112156   0.751   2.022   0.911  0.0000  0.0000  0.0000
12157SI     SI112157   0.436   3.631   0.851  0.0000  0.0000  0.0000
12158SI     SI112158   1.794   5.997   9.127  0.0000  0.0000  0.0000
12159SI     SI112159   9.508   3.627   0.933  0.0000  0.0000  0.0000
12160SI     SI112160   8.880   4.321   0.547  0.0000  0.0000  0.0000
12161SI     SI112161   6.887   6.811   0.604  0.0000  0.0000  0.0000
12162SI     SI112162   1.565   4.008   0.260  0.0000  0.0000  0.0000
12163SI     SI112163   3.607   2.194   0.080  0.0000  0.0000  0.0000
12164SI     SI112164   6.993   6.523   0.261  0.0000  0.0000  0.0000
12165SI     SI112165   2.721   7.208   8.906  0.0000  0.0000  0.0000
12166SI     SI112166   0.228   9.480   0.662  0.0000  0.0000  0.0000
12167SI     SI112167   3.592   5.040   0.111  0.0000  0.0000  0.0000
12168SI     SI112168   5.079   3.482   8.843  0.0000  0.0000  0.0000
12169SI     SI112169   8.455   7.698   8.683  0.0000  0.0000  0.0000
12170SI     SI112170   7.778   5.616   9.387  0.0000  0.0000  0.0000
12171SI     SI112171   5.863   2.059   8.671  0.0000  0.0000  0.0000
12172SI     SI112172   2.588   1.614   0.215  0.0000  0.0000  0.0000
12173SI     SI112173   5.838   9.379   0.309  0.0000  0.0000  0.0000
12174SI     SI112174   8.980   8.681   0.872  0.0000  0.0000  0.0000
12175SI     SI112175   4.697   0.146   9.437  0.0000  0.0000  0.0000
12176SI     SI112176   6.614   6.405   1.167  0.0000  0.0000  0.0000
12177SI     SI112177   8.404   0.564   0.554  0.0000  0.0000  0.0000
12178SI     SI112178   4.449   7.342   0.354  0.0000  0.0000  0.0000
12179SI     SI112179   1.631   4.179   9.532  0.0000  0.0000  0.0000
12180SI     SI112180   1.578   2.673   8.709  0.0000  0.0000  0.0000
12181SI     SI112181   0.269   2.028   0.560  0.0000  0.0000  0.0000
12182SI     SI112182   8.130   2.132   1.163  0.0000  0.0000  0.0000
12183SI     SI112183   6.342   2.844   0.724  0.0000  0.0000  0.0000
12184SI     SI112184   9.186   6.783   8.685  0.0000  0.0000  0.0000
12185SI     SI112185   1.706   3.452   0.562  0.0000  0.0000  0.0000
12186SI     SI112186   4.746   2.099   8.811  0.0000  0.0000  0.0000
12187SI     SI112187   7.407   4.676   0.322  0.0000  0.0000  0.0000
12188SI     SI112188   1.840   4.103   1.081  0.0000  0.0000  0.0000
12189SI     SI112189   1.666   0.780   0.162  0.0000  0.0000  0.0000
12190SI     SI112190   1.908   0.275   0.538  0.0000  0.0000  0.0000
12191SI     SI112191   1.331   7.704   9.029  0.0000  0.0000  0.0000
12192SI     SI112192   3.784   7.121   1.009  0.0000  0.0000  0.0000
12193SI     SI112193   6.619   4.814   8.606  0.0000  0.0000  0.0000
12194SI     SI112194   7.695   0.813   0.163  0.0000  0.0000  0.0000
12195SI     SI112195   9.083   4.171   0.139  0.0000  0.0000  0.0000
12196SI     SI112196   0.471   7.490   8.693  0.0000  0.0000  0.0000
12197SI     SI112197   4.177   8.737   9.500  0.0000  0.0000  0.0000
12198SI     SI112198   0.562   2.055   1.140  0.0000  0.0000  0.0000
12199SI     SI112199   6.635   8.280   0.021  0.0000  0.0000  0.0000
12200SI     SI112200   4.391   0.100   9.384  0.0000  0.0000  0.0000
12201SI     SI112201   6.105   6.761   8.425  0.0000  0.0000  0.0000
12202SI     SI112202   4.896   8.199   8.905  0.0000  0.0000  0.0000
12203SI     SI112203   1.860   6.048   8.630  0.0000  0.0000  0.0000
12204SI     SI112204   3.190   0.105   9.162  0.0000  0.0000  0.0000
12205SI     SI112205   4.650   8.698   9.590  0.0000  0.0000  0.0000
12206SI     SI112206   8.496   7.497   0.222  0.0000  0.0000  0.0000
12207SI     SI112207   4.710   6.784   0.810  0.0000  0.0000  0.0000
12208SI     SI112208   7.767   6.858   0.529  0.0000  0.0000  0.0000
12209SI     SI112209   3.200   5.008   8.521  0.0000  0.0000  0.0000
12210SI     SI112210   1.726   1.691   0.167  0.0000  0.0000  0.0000
12211SI     SI112211   2.791   5.852   9.135  0.0000  0.0000  0.0000
12212SI     SI112212   2.280   8.942   1.124  0.0000  0.0000  0.0000
12213SI     SI112213   7.677   6.622   9.044  0.0000  0.0000  0.0000
12214SI     SI112214   5.173   9.401   0.830  0.0000  0.0000  0.0000
12215SI     SI112215   7.209   3.405   0.217  0.0000  0.0000  0.0000
12216SI     SI112216   2.370   8.976   0.106  0.0000  0.0000  0.0000
12217SI     SI112217   6.704   4.742   0.014  0.0000  0.0000  0.0000
12218SI     SI112218   2.193   2.427   8.497  0.0000  0.0000  0.0000
12219SI     SI112219   2.856   2.473   1.177  0.0000  0.0000  0.0000
12220SI     SI112220   4.146   2.488   9.004  0.0000  0.0000  0.0000
12221SI     SI112221   9.558   8.823   8.932  0.0000  0.0000  0.0000
12222SI     SI112222   3.940   3.185   0.860  0.0000  0.0000  0.0000
12223SI     SI112223   5.675   3.827   0.471  0.0000  0.0000  0.0000
12224SI     SI112224   1.507   2.362   1.175  0.0000  0.0000  0.0000
12225SI     SI112225   6.028   0.372   9.519  0.0000  0.0000  0.0000
12226SI     SI112226   2.646   0.779   8.717  0.0000  0.0000  0.0000
12227SI     SI112227   6.109   8.089   0.052  0.0000  0.0000  0.0000
12228SI     SI112228   5.554   6.431   0.488  0.0000  0.0000  0.0000
12229SI     SI112229   7.029   3.997   8.775  0.0000  0.0000  0.0000
12230SI     SI112230   6.092   6.286   1.320  0.0000  0.0000  0.0000
12231SI     SI112231   5.150   8.896   8.839  0.0000  0.0000  0.0000
12232SI     SI112232   9.604   4.070   1.191  0.0000  0.0000  0.0000
12233SI     SI112233   8.629   1.289   1.360  0.0000  0.0000  0.0000
12234SI     SI112234   1.171   2.373   8.966  0.0000  0.0000  0.0000
12235SI     SI112235   3.355   5.458   0.365  0.0000  0.0000  0.0000
12236SI     SI112236   2.211   3.762   0.194  0.0000  0.0000  0.0000
12237SI     SI112237   4.666   7.812   9.023  0.0000  0.0000  0.0000
12238SI     SI112238   7.524   5.380   0.942  0.0000  0.0000  0.0000
12239SI     SI112239   8.879   6.886   0.011  0.0000  0.0000  0.0000
12240SI     SI112240   9.112   9.474   8.720  0.0000  0.0000  0.0000
12241SI     SI112241   4.041   9.508   9.298  0.0000  0.0000  0.0000
12242SI     SI112242   9.064   6.306   8.557  0.0000  0.0000  0.0000
12243SI     SI112243   5.615   7.386   0.148  0.0000  0.0000  0.0000
12244SI     SI112244   0.628   1.617   0.318  0.0000  0.0000  0.0000
12245SI     SI112245   9.464   0.199   0.620  0.0000  0.0000  0.0000
12246SI     SI112246   4.162   6.809   0.157  0.0000  0.0000  0.0000
12247SI     SI112247   0.194   9.388   8.929  0.0000  0.0000  0.0000
12248SI     SI112248   6.112   8.938   8.706  0.0000  0.0000  0.0000
12249SI     SI112249   1.900   7.956   0.399  0.0000  0.0000  0.0000
12250SI     SI112250   2.960   0.812   0.144  0.0000  0.0000  0.0000
12251SI     SI112251   5.219   3.910   0.691  0.0000  0.0000  0.0000
12252SI     SI112252   1.485   1.556   8.388  0.0000  0.0000  0.0000
12253SI     SI112253   1.693   1.069   0.061  0.0000  0.0000  0.0000
12254SI     SI112254   5.883   2.523   0.754  0.0000  0.0000  0.0000
12255SI     SI112255   6.579   3.687   0.243  0.0000  0.0000  0.0000
12256SI     SI112256   4.963   8.669   9.546  0.0000  0.0000  0.0000
12257SI     SI112257   0.559   8.048   9.470  0.0000  0.0000  0.0000
12258SI     SI112258   8.625   6.999   0.827  0.0000  0.0000  0.0000
12259SI     SI112259   6.399   8.291   0.419  0.0000  0.0000  0.0000
12260SI     SI112260   3.304   1.031   8.814  0.0000  0.0000  0.0000
12261SI     SI112261   2.643   7.850   9.073  0.0000  0.0000  0.0000
12262SI     SI112262   9.273   3.027   9.267  0.0000  0.0000  0.0000
12263SI     SI112263   0.608   3.072   9.200  0.0000  0.0000  0.0000
12264SI     SI112264   0.090   3.757   8.161  0.0000  0.0000  0.0000
12265SI     SI112265   2.012   1.618   0.561  0.0000  0.0000  0.0000
12266SI     SI112266   4.323   5.909   0.360  0.0000  0.0000  0.0000
12267SI     SI112267   0.788   2.024   9.535  0.0000  0.0000  0.0000
12268SI     SI112268   3.939   8.018   9.556  0.0000  0.0000  0.0000
12269SI     SI112269   8.461   4.110   9.101  0.0000  0.0000  0.0000
12270SI     SI112270   6.572   8.228   8.747  0.0000  0.0000  0.0000
12271SI     SI112271   9.187   6.515   9.098  0.0000  0.0000  0.0000
12272SI     SI112272   5.656   4.614   8.892  0.0000  0.0000  0.0000
12273SI     SI112273   1.649   8.351   9.072  0.0000  0.0000  0.0000
12274SI     SI112274   2.241   5.472   9.094  0.0000  0.0000  0.0000
12275SI     SI112275   0.770   9.025   1.016  0.0000  0.0000  0.0000
12276SI     SI112276   6.746   6.862   1.022  0.0000  0.0000  0.0000
12277SI     SI112277   3.308   2.070   9.298  0.0000  0.0000  0.0000
12278SI     SI112278   2.963   7.575   9.428  0.0000  0.0000  0.0000
12279SI     SI112279   8.248   7.299   8.422  0.0000  0.0000  0.0000
12280SI     SI112280   5.474   2.875   9.112  0.0000  0.0000  0.0000
12281SI     SI112281   1.699   0.288   0.762  0.0000  0.0000  0.0000
12282SI     SI112282   0.214   0.332   8.918  0.0000  0.0000  0.0000
12283SI     SI112283   0.177   0.330   8.404  0.0000  0.0000  0.0000
12284SI     SI112284   1.186   3.510   9.156  0.0000  0.0000  0.0000
12285SI     SI112285   8.474   3.361   0.852  0.0000  0.0000  0.0000
12286SI     SI112286   2.074   5.077   8.986  0.0000  0.0000  0.0000
12287SI     SI112287   3.462   9.032   9.417  0.0000  0.0000  0.0000
12288SI     SI112288   8.866   5.085   0.593  0.0000  0.0000  0.0000
12289SI     SI112289   1.858   8.156   0.164  0.0000  0.0000  0.0000
12290SI     SI112290   6.151   8.529   8.635  0.0000  0.0000  0.0000
12291SI     SI112291   5.002   8.173   0.633  0.0000  0.0000  0.0000
12292SI     SI112292   1.477   5.399   1.079  0.0000  0.0000  0.0000
12293SI     SI112293   2.435   6.347   9.340  0.0000  0.0000  0.0000
12294SI     SI112294   8.140   2.998   0.526  0.0000  0.0000  0.0000
12295SI     SI112295   0.288   0.483   8.656  0.0000  0.0000  0.0000
12296SI     SI112296   9.444   3.383   0.016  0.0000  0.0000  0.0000
12297SI     SI112297   2.925   9.102   0.237  0.0000  0.0000  0.0000
12298SI     SI112298   3.453   1.664   9.000  0.0000  0.0000  0.0000
12299SI     SI112299   2.487   7.357   0.112  0.0000  0.0000  0.0000
12300SI     SI112300   1.589   3.203   9.119  0.0000  0.0000  0.0000
12301SI     SI112301   6.313   1.966   8.476  0.0000  0.0000  0.0000
12302SI     SI112302   4.826   3.786   9.542  0.0000  0.0000  0.0000
12303SI     SI112303   3.341   6.032   9.197  0.0000  0.0000  0.0000
12304SI     SI112304   3.827   6.871   8.967  0.0000  0.0000  0.0000
12305SI     SI112305   8.238   3.926   9.023  0.0000  0.0000  0.0000
12306SI     SI112306   4.876   1.968   1.158  0.0000  0.0000  0.0000
12307SI     SI112307   7.457   3.132   9.291  0.0000  0.0000  0.0000
12308SI     SI112308   8.240   0.864   9.154  0.0000  0.0000  0.0000
12309SI     SI112309   8.615   1.485   0.812  0.0000  0.0000  0.0000
12310SI     SI112310   3.957   8.787   0.370  0.0000  0.0000  0.0000
12311SI     SI112311   1.958   1.841   0.772  0.0000  0.0000  0.0000
12312SI     SI112312   8.844   7.340   9.120  0.0000  0.0000  0.0000
12313SI     SI112313   0.863   0.085   9.528  0.0000  0.0000  0.0000
12314SI     SI112314   1.940   4.522   1.061  0.0000  0.0000  0.0000
12315SI     SI112315   4.196   8.275   1.231  0.0000  0.0000  0.0000
12316SI     SI112316   9.029   1.856   1.275  0.0000  0.0000  0.0000
12317SI     SI112317   1.790   6.462   8.886  0.0000  0.0000  0.0000
12318SI     SI112318   3.525   2.644   1.170  0.0000  0.0000  0.0000
12319SI     SI112319   6.803   8.174   0.681  0.0000  0.0000  0.0000
12320SI     SI112320   4.378   9.392   9.444  0.0000  0.0000  0.0000
12321SI     SI112321   5.533   9.177   1.060  0.0000  0.0000  0.0000
12322SI     SI112322   5.391   9.108   8.821  0.0000  0.0000  0.0000
12323SI     SI112323   2.218   4.579   8.411  0.0000  0.0000  0.0000
12324SI     SI112324   5.314   1.457   0.786  0.0000  0.0000  0.0000
12325SI     SI112325   9.332   8.884   1.060  0.0000  0.0000  0.0000
12326SI     SI112326   3.732   9.447   0.357  0.0000  0.0000  0.0000
12327SI     SI112327   2.582   1.260   8.928  0.0000  0.0000  0.0000
12328SI     SI112328   8.803   5.625   9.521  0.0000  0.0000  0.0000
12329SI     SI112329   0.774   6.769   8.686  0.0000  0.0000  0.0000
12330SI     SI112330   8.056   5.698   8.813  0.0000  0.0000  0.0000
12331SI     SI112331   2.139   2.450   0.011  0.0000  0.0000  0.0000
12332SI     SI112332   1.663   0.561   0.912  0.0000  0.0000  0.0000
12333SI     SI112333   6.070   7.820   1.156  0.0000  0.0000  0.0000
12334SI     SI112334   5.584   5.254   0.643  0.0000  0.0000  0.0000
12335SI     SI112335   1.166   7.487   0.585  0.0000  0.0000  0.0000
12336SI     SI112336   7.906   1.922   8.937  0.0000  0.0000  0.0000
12337SI     SI112337   7.290   8.722   0.280  0.0000  0.0000  0.0000
12338SI     SI112338   6.392   8.150   0.158  0.0000  0.0000  0.0000
12339SI     SI112339   7.318   7.793   0.101  0.0000  0.0000  0.0000
12340SI     SI112340   8.574   5.515   9.096  0.0000  0.0000  0.0000
12341SI     SI112341   9.251   8.583   1.000  0.0000  0.0000  0.0000
12342SI     SI112342   7.411   0.389   0.503  0.0000  0.0000  0.0000
12343SI     SI112343   1.802   0.048   0.935  0.0000  0.0000  0.0000
12344SI     SI112344   6.721   6.744   8.758  0.0000  0.0000  0.0000
12345SI     SI112345   4.852   1.208   0.542  0.0000  0.0000  0.0000
12346SI     SI112346   9.297   8.858   0.424  0.0000  0.0000  0.0000
12347SI     SI112347   3.075   9.130   8.550  0.0000  0.0000  0.0000
12348SI     SI112348   3.704   0.581   0.676  0.0000  0.0000  0.0000
12349SI     SI112349   4.330   4.596   8.651  0.0000  0.0000  0.0000
12350SI     SI112350   5.439   0.758   0.109  0.0000  0.0000  0.0000
12351SI     SI112351   0.872   5.561   1.109  0.0000  0.0000  0.0000
12352SI     SI112352   4.681   2.910   8.354  0.0000  0.0000  0.0000
12353SI     SI112353   4.555   6.930   9.128  0.0000  0.0000  0.0000
12354SI     SI112354   3.425   0.015   8.649  0.0000  0.0000  0.0000
12355SI     SI112355   2.585   5.026   8.441  0.0000  0.0000  0.0000
12356SI     SI112356   2.670   3.720   8.524  0.0000  0.0000  0.0000
12357SI     SI112357   3.568   6.261   0.684  0.0000  0.0000  0.0000
12358SI     SI112358   7.613   1.721   1.040  0.0000  0.0000  0.0000
12359SI     SI112359   8.178   7.868   1.006  0.0000  0.0000  0.0000
12360SI     SI112360   5.285   2.211   0.036  0.0000  0.0000  0.0000
12361SI     SI112361   7.644   2.879   0.461  0.0000  0.0000  0.0000
12362SI     SI112362   1.456   0.269   0.586  0.0000  0.0000  0.0000
12363SI     SI112363   7.772   2.819   9.258  0.0000  0.0000  0.0000
12364SI     SI112364   0.101   8.733   8.469  0.0000  0.0000  0.0000
12365SI     SI112365   2.456   7.820   8.575  0.0000  0.0000  0.0000
12366SI     SI112366   8.191   1.286   8.826  0.0000  0.0000  0.0000
12367SI     SI112367   7.999   0.547   8.820  0.0000  0.0000  0.0000
12368SI     SI112368   3.341   0.456   8.425  0.0000  0.0000  0.0000
12369SI     SI112369   2.307   0.973   1.055  0.0000  0.0000  0.0000
12370SI     SI112370   7.823   0.174   1.068  0.0000  0.0000  0.0000
12371SI     SI112371   6.852   3.938   9.554  0.0000  0.0000  0.0000
12372SI     SI112372   8.614   9.189   1.122  0.0000  0.0000  0.0000
12373SI     SI112373   1.925   4.127   9.462  0.0000  0.0000  0.0000
12374SI     SI112374   0.870   5.898   0.212  0.0000  0.0000  0.0000
12375SI     SI112375   4.105   4.073   0.114  0.0000  0.0000  0.0000
12376SI     SI112376   6.130   7.613   8.325  0.0000  0.0000  0.0000
12377SI     SI112377   7.543   6.638   8.183  0.0000  0.0000  0.0000
12378SI     SI112378   6.030   9.434   8.797  0.0000  0.0000  0.0000
12379SI     SI112379   5.054   1.068   0.351  0.0000  0.0000  0.0000
12380SI     SI112380   4.631   7.331   8.982  0.0000  0.0000  0.0000
12381SI     SI112381   9.286   8.678   8.983  0.0000  0.0000  0.0000
12382SI     SI112382   7.089   8.006   0.110  0.0000  0.0000  0.0000
12383SI     SI112383   6.823   5.809   0.516  0.0000  0.0000  0.0000
12384SI     SI112384   6.020   0.957   1.044  0.0000  0.0000  0.0000
12385SI     SI112385   4.133   4.416   0.700  0.0000  0.0000  0.0000
12386SI     SI112386   2.598   5.387   1.028  0.0000  0.0000  0.0000
12387SI     SI112387   8.817   2.203   9.511  0.0000  0.0000  0.0000
12388SI     SI112388   8.638   0.093   8.254  0.0000  0.0000  0.0000
12389SI     SI112389   6.050   3.264   1.173  0.0000  0.0000  0.0000
12390SI     SI112390   8.661   8.520   0.077  0.0000  0.0000  0.0000
12391SI     SI112391   7.170   6.771   9.401  0.0000  0.0000  0.0000
12392SI     SI112392   3.654   7.416   0.080  0.0000  0.0000  0.0000
12393SI     SI112393   8.292   3.307   0.146  0.0000  0.0000  0.0000
12394SI     SI112394   7.552   4.424   8.760  0.0000  0.0000  0.0000
12395SI     SI112395   3.619   4.564   0.993  0.0000  0.0000  0.0000
12396SI     SI112396   2.962   8.283   8.180  0.0000  0.0000  0.0000
12397SI     SI112397   5.425   3.524   0.115  0.0000  0.0000  0.0000
12398SI     SI112398   0.272   5.325   8.533  0.0000  0.0000  0.0000
12399SI     SI112399   0.460   0.411   0.330  0.0000  0.0000  0.0000
12400SI     SI112400   9.457   4.320   0.745  0.0000  0.0000  0.0000
12401SI     SI112401   0.441   1.274   1.269  0.0000  0.0000  0.0000
12402SI     SI112402   4.794   4.207   0.095  0.0000  0.0000  0.0000
12403SI     SI112403   2.685   6.240   9.495  0.0000  0.0000  0.0000
12404SI     SI112404   4.537   7.036   0.333  0.0000  0.0000  0.0000
12405SI     SI112405   5.883   7.473   9.099  0.0000  0.0000  0.0000
12406SI     SI112406   7.161   4.329   9.325  0.0000  0.0000  0.0000
12407SI     SI112407   7.299   4.073   8.934  0.0000  0.0000  0.0000
12408SI     SI112408   3.370   7.261   9.273  0.0000  0.0000  0.0000
12409SI     SI112409   9.232   1.141   0.958  0.0000  0.0000  0.0000
12410SI     SI112410   2.708   4.169   0.444  0.0000  0.0000  0.0000
12411SI     SI112411   8.194   1.966   8.540  0.0000  0.0000  0.0000
12412SI     SI112412   3.328   1.415   9.069  0.0000  0.0000  0.0000
12413SI     SI112413   8.787   0.971   9.222  0.0000  0.0000  0.0000
12414SI     SI112414   8.404   2.215   1.040  0.0000  0.0000  0.0000
12415SI     SI112415   2.645   1.772   8.736  0.0000  0.0000  0.0000
12416SI     SI112416   6.565   4.484   0.366  0.0000  0.0000  0.0000
12417SI     SI112417   9.556   1.618   0.161  0.0000  0.0000  0.0000
12418SI     SI112418   9.439   5.673   0.539  0.0000  0.0000  0.0000
12419SI     SI112419   4.884   6.556   8.974  0.0000  0.0000  0.0000
12420SI     SI112420   0.347   4.098   9.401  0.0000  0.0000  0.0000
12421SI     SI112421   8.564   5.572   0.922  0.0000  0.0000  0.0000
12422SI     SI112422   2.402   0.280   0.635  0.0000  0.0000  0.0000
12423SI     SI112423   1.599   2.099   0.810  0.0000  0.0000  0.0000
12424SI     SI112424   5.456   8.310   0.133  0.0000  0.0000  0.0000
12425SI     SI112425   5.841   4.191   9.476  0.0000  0.0000  0.0000
12426SI     SI112426   0.424   2.673   1.063  0.0000  0.0000  0.0000
12427SI     SI112427   6.454   6.155   0.007  0.0000  0.0000  0.0000
12428SI     SI112428   6.429   1.627   0.990  0.0000  0.0000  0.0000
12429SI     SI112429   3.326   6.931   8.328  0.0000  0.0000  0.0000
12430SI     SI112430   5.288   9.044   1.164  0.0000  0.0000  0.0000
12431SI     SI112431   8.133   4.340   0.487  0.0000  0.0000  0.0000
12432SI     SI112432   6.453   3.952   8.830  0.0000  0.0000  0.0000
12433SI     SI112433   4.637   2.844   8.652  0.0000  0.0000  0.0000
12434SI     SI112434   5.059   4.172   8.526  0.0000  0.0000  0.0000
12435SI     SI112435   9.319   2.501   0.481  0.0000  0.0000  0.0000
12436SI     SI112436   1.283   8.956   0.098  0.0000  0.0000  0.0000
12437SI     SI112437   8.928   1.498   0.823  0.0000  0.0000  0.0000
12438SI     SI112438   2.707   3.566   0.030  0.0000  0.0000  0.0000
12439SI     SI112439   4.170   3.890   8.784  0.0000  0.0000  0.0000
12440SI     SI112440   7.622   5.861   9.334  0.0000  0.0000  0.0000
12441SI     SI112441   9.251   6.777   1.075  0.0000  0.0000  0.0000
12442SI     SI112442   7.451   5.806   8.453  0.0000  0.0000  0.0000
12443SI     SI112443   8.518   5.868   0.300  0.0000  0.0000  0.0000
12444SI     SI112444   5.042   8.894   0.853  0.0000  0.0000  0.0000
12445SI     SI112445   6.806   7.332   0.611  0.0000  0.0000  0.0000
12446SI     SI112446   2.222   9.412   0.403  0.0000  0.0000  0.0000
12447SI     SI112447   2.765   8.262   8.801  0.0000  0.0000  0.0000
12448SI     SI112448   2.704   6.458   0.310  0.0000  0.0000  0.0000
12449SI     SI112449   1.613   4.385   0.747  0.0000  0.0000  0.0000
12450SI     SI112450   6.562   7.184   0.601  0.0000  0.0000  0.0000
12451SI     SI112451   9.335   1.718   9.025  0.0000  0.0000  0.0000
12452SI     SI112452   1.163   1.697   9.519  0.0000  0.0000  0.0000
12453SI     SI112453   4.630   5.730   9.102  0.0000  0.0000  0.0000
12454SI     SI112454   7.808   1.648   9.400  0.0000  0.0000  0.0000
12455SI     SI112455   9.327   0.734   0.660  0.0000  0.0000  0.0000
12456SI     SI112456   1.619   9.536   0.298  0.0000  0.0000  0.0000
12457SI     SI112457   7.342   3.126   0.163  0.0000  0.0000  0.0000
12458SI     SI112458   8.184   7.839   8.398  0.0000  0.0000  0.0000
12459SI     SI112459   8.424   1.850   8.951  0.0000  0.0000  0.0000
12460SI     SI112460   6.890   9.535   0.514  0.0000  0.0000  0.0000
12461SI     SI112461   9.151   9.189   8.837  0.0000  0.0000  0.0000
12462SI     SI112462   0.766   8.155   8.444  0.0000  0.0000  0.0000
12463SI     SI112463   1.048   6.593   9.522  0.0000  0.0000  0.0000
12464SI     SI112464   1.076   3.530   0.776  0.0000  0.0000  0.0000
12465SI     SI112465   7.998   3.726   0.280  0.0000  0.0000  0.0000
12466SI     SI112466   6.162   4.836   9.518  0.0000  0.0000  0.0000
12467SI     SI112467   2.275   8.308   0.168  0.0000  0.0000  0.0000
12468SI     SI112468   2.512   6.880   0.257  0.0000  0.0000  0.0000
12469SI     SI112469   4.305   3.916   9.533  0.0000  0.0000  0.0000
12470SI     SI112470   6.763   7.590   0.433  0.0000  0.0000  0.0000
12471SI     SI112471   4.925   0.907   9.508  0.0000  0.0000  0.0000
12472SI     SI112472   7.617   4.768   1.235  0.0000  0.0000  0.0000
12473SI     SI112473   5.595   9.558   8.566  0.0000  0.0000  0.0000
12474SI     SI112474   7.070   3.715   9.187  0.0000  0.0000  0.0000
12475SI     SI112475   4.387   3.394   9.557  0.0000  0.0000  0.0000
12476SI     SI112476   4.962   7.962   0.862  0.0000  0.0000  0.0000
12477SI     SI112477   4.781   9.254   9.231  0.0000  0.0000  0.0000
12478SI     SI112478   2.322   8.432   1.002  0.0000  0.0000  0.0000
12479SI     SI112479   3.491   8.160   1.049  0.0000  0.0000  0.0000
12480SI     SI112480   2.823   5.346   0.565  0.0000  0.0000  0.0000
12481SI     SI112481   8.686   2.182   0.193  0.0000  0.0000  0.0000
12482SI     SI112482   5.156   4.471   8.549  0.0000  0.0000  0.0000
12483SI     SI112483   8.424   5.044   8.881  0.0000  0.0000  0.0000
12484SI     SI112484   5.095   0.471   0.749  0.0000  0.0000  0.0000
12485SI     SI112485   3.552   6.766   1.031  0.0000  0.0000  0.0000
12486SI     SI112486   0.224   3.863   9.266  0.0000  0.0000  0.0000
12487SI     SI112487   2.614   2.459   8.593  0.0000  0.0000  0.0000
12488SI     SI112488   4.222   8.770   1.249  0.0000  0.0000  0.0000
12489SI     SI112489   8.908   3.014   0.073  0.0000  0.0000  0.0000
12490SI     SI112490   0.882   3.022   1.306  0.0000  0.0000  0.0000
12491SI     SI112491   3.720   5.999   9.554  0.0000  0.0000  0.0000
12492SI     SI112492   1.612   9.145   0.898  0.0000  0.0000  0.0000
12493SI     SI112493   1.845   3.312   8.976  0.0000  0.0000  0.0000
12494SI     SI112494   5.837   8.519   8.642  0.0000  0.0000  0.0000
12495SI     SI112495   0.318   3.117   9.583  0.0000  0.0000  0.0000
12496SI     SI112496   7.777   6.062   0.507  0.0000  0.0000  0.0000
12497SI     SI112497   2.855   0.153   0.905  0.0000  0.0000  0.0000
12498SI     SI112498   9.033   1.109   0.715  0.0000  0.0000  0.0000
12499SI     SI112499   2.151   0.567   0.184  0.0000  0.0000  0.0000
12500SI     SI112500   6.412   7.099   0.188  0.0000  0.0000  0.0000
12501SI     SI112501   5.547   2.521   9.381  0.0000  0.0000  0.0000
12502SI     SI112502   5.448   2.259   8.721  0.0000  0.0000  0.0000
12503SI     SI112503   0.548   6.251   8.515  0.0000  0.0000  0.0000
12504SI     SI112504   5.113   0.019   9.145  0.0000  0.0000  0.0000
12505SI     SI112505   8.190   8.664   0.221  0.0000  0.0000  0.0000
12506SI     SI112506   3.623   7.882   0.979  0.0000  0.0000  0.0000
12507SI     SI112507   0.341   4.917   0.265  0.0000  0.0000  0.0000
12508SI     SI112508   7.250   2.035   9.207  0.0000  0.0000  0.0000
12509SI     SI112509   4.019   8.090   8.582  0.0000  0.0000  0.0000
12510SI     SI112510   4.041   2.955   9.066  0.0000  0.0000  0.0000
12511SI     SI112511   1.113   4.685   0.834  0.0000  0.0000  0.0000
12512SI     SI112512   7.440   3.921   0.539  0.0000  0.0000  0.0000
12513SI     SI112513   7.188   6.397   0.740  0.0000  0.0000  0.0000
12514SI     SI112514   5.215   9.490   0.528  0.0000  0.0000  0.0000
12515SI     SI112515   5.260   2.059   8.591  0.0000  0.0000  0.0000
12516SI     SI112516   2.764   9.466   1.259  0.0000  0.0000  0.0000
12517SI     SI112517   1.265   0.448   8.326  0.0000  0.0000  0.0000
12518SI     SI112518   0.100   8.290   0.350  0.0000  0.0000  0.0000
12519SI     SI112519   7.520   6.302   1.031  0.0000  0.0000  0.0000
12520SI     SI112520   7.156   3.032   9.318  0.0000  0.0000  0.0000
12521SI     SI112521   5.398   5.371   8.383  0.0000  0.0000  0.0000
12522SI     SI112522   2.752   4.420   0.056  0.0000  0.0000  0.0000
12523SI     SI112523   6.086   5.656   9.196  0.0000  0.0000  0.0000
12524SI     SI112524   0.650   0.656   1.223  0.0000  0.0000  0.0000
12525SI     SI112525   6.879   0.406   9.162  0.0000  0.0000  0.0000
12526SI     SI112526   5.255   6.463   0.426  0.0000  0.0000  0.0000
12527SI     SI112527   0.078   2.288   1.232  0.0000  0.0000  0.0000
12528SI     SI112528   1.927   1.565   8.649  0.0000  0.0000  0.0000
12529SI     SI112529   5.747   7.816   8.623  0.0000  0.0000  0.0000
12530SI     SI112530   3.715   3.825   8.533  0.0000  0.0000  0.0000
12531SI     SI112531   8.117   6.179   8.759  0.0000  0.0000  0.0000
12532SI     SI112532   1.005   9.203   0.994  0.0000  0.0000  0.0000
12533SI     SI112533   4.685   7.010   0.614  0.0000  0.0000  0.0000
12534SI     SI112534   4.111   1.936   9.164  0.0000  0.0000  0.0000
12535SI     SI112535   8.827   3.972   8.555  0.0000  0.0000  0.0000
12536SI     SI112536   4.416   0.768   8.689  0.0000  0.0000  0.0000
12537SI     SI112537   1.359   9.587   8.533  0.0000  0.0000  0.0000
12538SI     SI112538   8.702   4.520   8.502  0.0000  0.0000  0.0000
12539SI     SI112539   7.927   4.002   8.431  0.0000  0.0000  0.0000
12540SI     SI112540   5.710   9.012   0.860  0.0000  0.0000  0.0000
12541SI     SI112541   3.327   4.922   9.234  0.0000  0.0000  0.0000
12542SI     SI112542   4.851   1.678   8.970  0.0000  0.0000  0.0000
12543SI     SI112543   6.481   8.996   9.581  0.0000  0.0000  0.0000
12544SI     SI112544   1.810   1.041   8.393  0.0000  0.0000  0.0000
12545SI     SI112545   6.756   0.154   9.046  0.0000  0.0000  0.0000
12546SI     SI112546   6.366   4.104   8.387  0.0000  0.0000  0.0000
12547SI     SI112547   3.160   0.564   9.409  0.0000  0.0000  0.0000
12548SI     SI112548   0.582   0.094   0.817  0.0000  0.0000  0.0000
12549SI     SI112549   5.888   7.148   8.384  0.0000  0.0000  0.0000
12550SI     SI112550   2.525   1.976   9.450  0.0000  0.0000  0.0000
12551SI     SI112551   3.956   2.306   0.460  0.0000  0.0000  0.0000
12552SI     SI112552   1.041   7.000   9.246  0.0000  0.0000  0.0000
12553SI     SI112553   9.144   8.004   9.399  0.0000  0.0000  0.0000
12554SI     SI112554   7.165   1.018   0.097  0.0000  0.0000  0.0000
12555SI     SI112555   8.647   4.306   8.966  0.0000  0.0000  0.0000
12556SI     SI112556   8.792   0.515   0.730  0.0000  0.0000  0.0000
12557SI     SI112557   9.060   0.377   9.560  0.0000  0.0000  0.0000
12558SI     SI112558   7.537   2.963   8.780  0.0000  0.0000  0.0000
12559SI     SI112559   8.121   0.077   1.107  0.0000  0.0000  0.0000
12560SI     SI112560   1.927   1.403   0.949  0.0000  0.0000  0.0000
12561SI     SI112561   1.043   1.268   0.288  0.0000  0.0000  0.0000
12562SI     SI112562   8.495   3.649   0.749  0.0000  0.0000  0.0000
12563SI     SI112563   0.299   7.642   0.511  0.0000  0.0000  0.0000
12564SI     SI112564   9.444   9.386   0.041  0.0000  0.0000  0.0000
12565SI     SI112565   7.509   1.490   1.220  0.0000  0.0000  0.0000
12566SI     SI112566   8.509   6.396   9.327  0.0000  0.0000  0.0000
12567SI     SI112567   2.784   7.206   9.397  0.0000  0.0000  0.0000
12568SI     SI112568   6.569   7.529   8.635  0.0000  0.0000  0.0000
12569SI     SI112569   6.956   7.841   9.095  0.0000  0.0000  0.0000
12570SI     SI112570   4.604   4.368   1.029  0.0000  0.0000  0.0000
12571SI     SI112571   3.525   3.446   1.232  0.0000  0.0000  0.0000
12572SI     SI112572   2.560   7.416   9.304  0.0000  0.0000  0.0000
12573SI     SI112573   2.222   4.726   8.690  0.0000  0.0000  0.0000
12574SI     SI112574   9.098   2.344   9.584  0.0000  0.0000  0.0000
12575SI     SI112575   7.881   6.193   8.937  0.0000  0.0000  0.0000
12576SI     SI112576   5.821   9.102   9.373  0.0000  0.0000  0.0000
12577SI     SI112577   7.158   5.682   0.773  0.0000  0.0000  0.0000
12578SI     SI112578   3.126   6.092   8.395  0.0000  0.0000  0.0000
12579SI     SI112579   2.387   9.295   8.208  0.0000  0.0000  0.0000
12580SI     SI112580   8.182   9.481   8.769  0.0000  0.0000  0.0000
12581SI     SI112581   0.115   7.888   0.973  0.0000  0.0000  0.0000
12582SI     SI112582   0.530   7.382   0.095  0.0000  0.0000  0.0000
12583SI     SI112583   0.216   5.989   1.121  0.0000  0.0000  0.0000
12584SI     SI112584   9.123   1.423   9.362  0.0000  0.0000  0.0000
12585SI     SI112585   1.382   0.961   8.741  0.0000  0.0000  0.0000
12586SI     SI112586   2.110   3.523   9.339  0.0000  0.0000  0.0000
12587SI     SI112587   3.525   5.880   8.432  0.0000  0.0000  0.0000
12588SI     SI112588   6.614   0.591   1.073  0.0000  0.0000  0.0000
12589SI     SI112589   7.636   8.702   8.953  0.0000  0.0000  0.0000
12590SI     SI112590   7.582   6.538   8.615  0.0000  0.0000  0.0000
12591SI     SI112591   3.332   4.595   9.573  0.0000  0.0000  0.0000
12592SI     SI112592   5.257   1.280   9.460  0.0000  0.0000  0.0000
12593SI     SI112593   8.195   6.338   0.557  0.0000  0.0000  0.0000
12594SI     SI112594   2.125   2.934   0.266  0.0000  0.0000  0.0000
12595SI     SI112595   3.643   3.513   0.506  0.0000  0.0000  0.0000
12596SI     SI112596   5.035   8.136   1.101  0.0000  0.0000  0.0000
12597SI     SI112597   6.512   6.222   0.508  0.0000  0.0000  0.0000
12598SI     SI112598   8.489   2.266   0.756  0.0000  0.0000  0.0000
12599SI     SI112599   0.023   3.355   8.480  0.0000  0.0000  0.0000
12600SI     SI112600   4.257   5.378   0.030  0.0000  0.0000  0.0000
12601SI     SI112601   0.708   6.484   8.780  0.0000  0.0000  0.0000
12602SI     SI112602   6.350   6.018   0.695  0.0000  0.0000  0.0000
12603SI     SI112603   3.797   0.269   8.637  0.0000  0.0000  0.0000
12604SI     SI112604   8.106   1.629   0.222  0.0000  0.0000  0.0000
12605SI     SI112605   4.061   8.232   9.375  0.0000  0.0000  0.0000
12606SI     SI112606   6.770   1.451   8.516  0.0000  0.0000  0.0000
12607SI     SI112607   1.514   3.607   8.912  0.0000  0.0000  0.0000
12608SI     SI112608   4.698   0.426   9.569  0.0000  0.0000  0.0000
12609SI     SI112609   8.896   4.167   9.040  0.0000  0.0000  0.0000
12610SI     SI112610   4.116   3.560   0.270  0.0000  0.0000  0.0000
12611SI     SI112611   5.052   7.304   1.048  0.0000  0.0000  0.0000
12612SI     SI112612   6.452   5.137   0.703  0.0000  0.0000  0.0000
12613SI     SI112613   2.100   4.958   1.057  0.0000  0.0000  0.0000
12614SI     SI112614   5.687   7.297   8.951  0.0000  0.0000  0.0000
12615SI     SI112615   1.097   5.743   0.364  0.0000  0.0000  0.0000
12616SI     SI112616   4.658   0.362   0.684  0.0000  0.0000  0.0000
12617SI     SI112617   3.514   2.925   9.598  0.0000  0.0000  0.0000
12618SI     SI112618   7.614   7.572   8.597  0.0000  0.0000  0.0000
12619SI     SI112619   2.702   5.491   8.738  0.0000  0.0000  0.0000
12620SI     SI112620   2.144   8.371   9.214  0.0000  0.0000  0.0000
12621SI     SI112621   8.505   0.746   1.029  0.0000  0.0000  0.0000
12622SI     SI112622   5.437   0.736   1.026  0.0000  0.0000  0.0000
12623SI     SI112623   9.108   5.079   9.152  0.0000  0.0000  0.0000
12624SI     SI112624   9.160   0.310   9.273  0.0000  0.0000  0.0000
12625SI     SI112625   3.410   3.283   0.843  0.0000  0.0000  0.0000
12626SI     SI112626   6.048   9.145   8.931  0.0000  0.0000  0.0000
12627SI     SI112627   0.436   4.318   1.171  0.0000  0.0000  0.0000
12628SI     SI112628   3.667   7.356   9.227  0.0000  0.0000  0.0000
12629SI     SI112629   5.622   8.802   1.061  0.0000  0.0000  0.0000
12630SI     SI112630   1.858   1.713   9.223  0.0000  0.0000  0.0000
12631SI     SI112631   0.232   8.716   0.352  0.0000  0.0000  0.0000
12632SI     SI112632   3.578   2.762   8.525  0.0000  0.0000  0.0000
12633SI     SI112633   0.368   8.503   9.421  0.0000  0.0000  0.0000
12634SI     SI112634   1.549   6.068   8.942  0.0000  0.0000  0.0000
12635SI     SI112635   7.430   8.550   9.120  0.0000  0.0000  0.0000
12636SI     SI112636   9.496   7.901   0.494  0.0000  0.0000  0.0000
12637SI     SI112637   7.129   6.017   9.111  0.0000  0.0000  0.0000
12638SI     SI112638   6.355   3.497   8.935  0.0000  0.0000  0.0000
12639SI     SI112639   5.974   7.577   1.025  0.0000  0.0000  0.0000
12640SI     SI112640   2.970   6.415   0.447  0.0000  0.0000  0.0000
12641SI     SI112641   4.500   0.364   0.205  0.0000  0.0000  0.0000
12642SI     SI112642   0.808   7.343   1.087  0.0000  0.0000  0.0000
12643SI     SI112643   3.024   9.282   9.359  0.0000  0.0000  0.0000
12644SI     SI112644   0.061   6.250   8.334  0.0000  0.0000  0.0000
12645SI     SI112645   3.982   1.952   8.692  0.0000  0.0000  0.0000
12646SI     SI112646   5.710   8.477   0.032  0.0000  0.0000  0.0000
12647SI     SI112647   3.907   8.472   8.939  0.0000  0.0000  0.0000
12648SI     SI112648   4.052   6.132   0.939  0.0000  0.0000  0.0000
12649SI     SI112649   4.211   7.460   1.005  0.0000  0.0000  0.0000
12650SI     SI112650   5.329   2.756   1.188  0.0000  0.0000  0.0000
12651SI     SI112651   1.833   5.928   0.834  0.0000  0.0000  0.0000
12652SI     SI112652   0.466   6.564   9.214  0.0000  0.0000  0.0000
12653SI     SI112653   0.330   8.942   9.193  0.0000  0.0000  0.0000
12654SI     SI112654   6.787   7.890   0.651  0.0000  0.0000  0.0000
12655SI     SI112655   2.701   9.273   0.327  0.0000  0.0000  0.0000
12656SI     SI112656   3.059   8.386   0.825  0.0000  0.0000  0.0000
12657SI     SI112657   5.612   9.551   9.053  0.0000  0.0000  0.0000
12658SI     SI112658   3.360   7.888   9.211  0.0000  0.0000  0.0000
12659SI     SI112659   7.293   9.066   8.792  0.0000  0.0000  0.0000
12660SI     SI112660   9.200   4.455   8.719  0.0000  0.0000  0.0000
12661SI     SI112661   4.571   0.281   8.442  0.0000  0.0000  0.0000
12662SI     SI112662   5.970   2.399   0.213  0.0000  0.0000  0.0000
12663SI     SI112663   7.994   8.496   1.094  0.0000  0.0000  0.0000
12664SI     SI112664   9.579   3.643   0.133  0.0000  0.0000  0.0000
12665SI     SI112665   1.891   0.614   0.010  0.0000  0.0000  0.0000
12666SI     SI112666   5.425   3.990   1.368  0.0000  0.0000  0.0000
12667SI     SI112667   0.865   6.690   1.363  0.0000  0.0000  0.0000
12668SI     SI112668   0.364   5.870   8.614  0.0000  0.0000  0.0000
12669SI     SI112669   1.264   4.359   9.248  0.0000  0.0000  0.0000
12670SI     SI112670   9.163   5.791   0.494  0.0000  0.0000  0.0000
12671SI     SI112671   8.870   9.309   0.436  0.0000  0.0000  0.0000
12672SI     SI112672   9.482   5.069   1.320  0.0000  0.0000  0.0000
12673SI     SI112673   9.267   4.961   8.928  0.0000  0.0000  0.0000
12674SI     SI112674   0.584   5.371   1.390  0.0000  0.0000  0.0000
12675SI     SI112675   4.765   3.517   0.958  0.0000  0.0000  0.0000
12676SI     SI112676   8.672   3.192   0.728  0.0000  0.0000  0.0000
12677SI     SI112677   1.411   9.201   0.524  0.0000  0.0000  0.0000
12678SI     SI112678   4.162   6.262   0.020  0.0000  0.0000  0.0000
12679SI     SI112679   5.674   6.185   8.724  0.0000  0.0000  0.0000
12680SI     SI112680   8.616   5.632   8.529  0.0000  0.0000  0.0000
12681SI     SI112681   0.538   1.115   9.368  0.0000  0.0000  0.0000
12682SI     SI112682   6.577   1.611   8.666  0.0000  0.0000  0.0000
12683SI     SI112683   0.505   9.142   9.368  0.0000  0.0000  0.0000
12684SI     SI112684   7.029   4.257   8.612  0.0000  0.0000  0.0000
12685SI     SI112685   6.722   8.020   9.483  0.0000  0.0000  0.0000
12686SI     SI112686   7.573   9.127   9.558  0.0000  0.0000  0.0000
12687SI     SI112687   7.782   2.898   9.563  0.0000  0.0000  0.0000
12688SI     SI112688   5.738   8.049   1.206  0.0000  0.0000  0.0000
12689SI     SI112689   0.699   3.155   8.644  0.0000  0.0000  0.0000
12690SI     SI112690   3.390   2.573   0.904  0.0000  0.0000  0.0000
12691SI     SI112691   8.345   0.541   0.845  0.0000  0.0000  0.0000
12692SI     SI112692   4.363   0.436   0.986  0.0000  0.0000  0.0000
12693SI     SI112693   1.470   3.357   0.707  0.0000  0.0000  0.0000
12694SI     SI112694   3.880   2.602   0.098  0.0000  0.0000  0.0000
12695SI     SI112695   5.870   8.084   0.801  0.0000  0.0000  0.0000
12696SI     SI112696   0.427   0.312   8.215  0.0000  0.0000  0.0000
12697SI     SI112697   4.099   8.885   8.848  0.0000  0.0000  0.0000
12698SI     SI112698   4.510   2.419   0.793  0.0000  0.0000  0.0000
12699SI     SI112699   2.124   6.598   0.027  0.0000  0.0000  0.0000
12700SI     SI112700   0.395   3.602   8.667  0.0000  0.0000  0.0000
12701SI     SI112701   7.311   0.925   0.567  0.0000  0.0000  0.0000
12702SI     SI112702   7.166   7.898   9.296  0.0000  0.0000  0.0000
12703SI     SI112703   2.876   6.431   0.738  0.0000  0.0000  0.0000
12704SI     SI112704   3.623   1.192   0.762  0.0000  0.0000  0.0000
12705SI     SI112705   8.257   5.948   0.422  0.0000  0.0000  0.0000
12706SI     SI112706   5.691   3.398   0.238  0.0000  0.0000  0.0000
12707SI     SI112707   0.970   4.786   9.145  0.0000  0.0000  0.0000
12708SI     SI112708   3.107   1.498   8.667  0.0000  0.0000  0.0000
12709SI     SI112709   3.866   4.451   1.154  0.0000  0.0000  0.0000
12710SI     SI112710   5.019   6.619   0.543  0.0000  0.0000  0.0000
12711SI     SI112711   6.444   1.935   0.351  0.0000  0.0000  0.0000
12712SI     SI112712   1.174   1.319   8.842  0.0000  0.0000  0.0000
12713SI     SI112713   2.622   2.362   0.719  0.0000  0.0000  0.0000
12714SI     SI112714   9.501   2.363   0.688  0.0000  0.0000  0.0000
12715SI     SI112715   7.422   8.042   8.730  0.0000  0.0000  0.0000
12716SI     SI112716   3.161   6.206   0.303  0.0000  0.0000  0.0000
12717SI     SI112717   3.568   8.271   8.519  0.0000  0.0000  0.0000
12718SI     SI112718   8.683   3.678   8.848  0.0000  0.0000  0.0000
12719SI     SI112719   0.115   1.328   9.360  0.0000  0.0000  0.0000
12720SI     SI112720   1.285   0.138   9.269  0.0000  0.0000  0.0000
12721SI     SI112721   4.760   5.555   0.958  0.0000  0.0000  0.0000
12722SI     SI112722   4.043   4.601   0.940  0.0000  0.0000  0.0000
12723SI     SI112723   9.440   7.041   0.049  0.0000  0.0000  0.0000
12724SI     SI112724   8.934   8.964   0.772  0.0000  0.0000  0.0000
12725SI     SI112725   3.864   4.173   1.306  0.0000  0.0000  0.0000
12726SI     SI112726   1.859   2.825   0.182  0.0000  0.0000  0.0000
12727SI     SI112727   1.863   7.358   8.602  0.0000  0.0000  0.0000
12728SI     SI112728   6.641   2.958   8.555  0.0000  0.0000  0.0000
12729SI     SI112729   5.173   2.923   0.832  0.0000  0.0000  0.0000
12730SI     SI112730   1.434   0.131   8.801  0.0000  0.0000  0.0000
12731SI     SI112731   5.198   8.961   9.324  0.0000  0.0000  0.0000
12732SI     SI112732   8.071   4.829   0.279  0.0000  0.0000  0.0000
12733SI     SI112733   1.100   8.379   9.384  0.0000  0.0000  0.0000
12734SI     SI112734   0.793   1.263   9.470  0.0000  0.0000  0.0000
12735SI     SI112735   6.041   4.191   1.126  0.0000  0.0000  0.0000
12736SI     SI112736   5.421   5.811   0.947  0.0000  0.0000  0.0000
12737SI     SI112737   6.548   3.997   9.489  0.0000  0.0000  0.0000
12738SI     SI112738   8.749   0.370   9.528  0.0000  0.0000  0.0000
12739SI     SI112739   3.084   0.695   9.151  0.0000  0.0000  0.0000
12740SI     SI112740   9.577   6.668   8.964  0.0000  0.0000  0.0000
12741SI     SI112741   8.059   5.135   0.251  0.0000  0.0000  0.0000
12742SI     SI112742   6.766   6.298   8.816  0.0000  0.0000  0.0000
12743SI     SI112743   6.170   6.256   0.737  0.0000  0.0000  0.0000
12744SI     SI112744   5.196   2.822   0.558  0.0000  0.0000  0.0000
12745SI     SI112745   7.391   1.168   9.557  0.0000  0.0000  0.0000
12746SI     SI112746   4.117   9.172   8.769  0.0000  0.0000  0.0000
12747SI     SI112747   0.428   5.314   9.476  0.0000  0.0000  0.0000
12748SI     SI112748   5.837   1.458   1.112  0.0000  0.0000  0.0000
12749SI     SI112749   6.697   0.062   1.123  0.0000  0.0000  0.0000
12750SI     SI112750   4.233   2.205   9.058  0.0000  0.0000  0.0000
12751SI     SI112751   6.543   5.163   0.991  0.0000  0.0000  0.0000
12752SI     SI112752   1.300   6.146   0.044  0.0000  0.0000  0.0000
12753SI     SI112753   7.930   7.737   8.253  0.0000  0.0000  0.0000
12754SI     SI112754   3.215   8.385   1.297  0.0000  0.0000  0.0000
12755SI     SI112755   5.221   9.111   0.767  0.0000  0.0000  0.0000
12756SI     SI112756   8.704   9.044   9.392  0.0000  0.0000  0.0000
12757SI     SI112757   9.124   1.557   1.271  0.0000  0.0000  0.0000
12758SI     SI112758   8.768   9.465   9.371  0.0000  0.0000  0.0000
12759SI     SI112759   1.598   4.005   0.559  0.0000  0.0000  0.0000
12760SI     SI112760   3.109   2.380   8.458  0.0000  0.0000  0.0000
12761SI     SI112761   5.863   4.260   8.319  0.0000  0.0000  0.0000
12762SI     SI112762   6.080   4.203   0.067  0.0000  0.0000  0.0000
12763SI     SI112763   0.443   3.828   0.440  0.0000  0.0000  0.0000
12764SI     SI112764   4.097   0.178   1.196  0.0000  0.0000  0.0000
12765SI     SI112765   6.052   8.186   8.912  0.0000  0.0000  0.0000
12766SI     SI112766   5.952   3.194   8.900  0.0000  0.0000  0.0000
12767SI     SI112767   3.385   6.967   0.071  0.0000  0.0000  0.0000
12768SI     SI112768   7.873   3.327   8.798  0.0000  0.0000  0.0000
12769SI     SI112769   5.745   8.513   0.538  0.0000  0.0000  0.0000
12770SI     SI112770   8.457   1.982   0.139  0.0000  0.0000  0.0000
12771SI     SI112771   8.613   2.723   9.461  0.0000  0.0000  0.0000
12772SI     SI112772   3.924   2.424   8.522  0.0000  0.0000  0.0000
12773SI     SI112773   2.770   5.635   0.669  0.0000  0.0000  0.0000
12774SI     SI112774   1.553   3.265   0.351  0.0000  0.0000  0.0000
12775SI     SI112775   2.440   2.884   8.805  0.0000  0.0000  0.0000
12776SI     SI112776   6.655   5.691   0.036  0.0000  0.0000  0.0000
12777SI     SI112777   6.253   0.590   9.500  0.0000  0.0000  0.0000
12778SI     SI112778   0.026   1.763   8.927  0.0000  0.0000  0.0000
12779SI     SI112779   5.292   4.635   9.258  0.0000  0.0000  0.0000
12780SI     SI112780   6.659   8.015   1.300  0.0000  0.0000  0.0000
12781SI     SI112781   5.103   2.541   8.707  0.0000  0.0000  0.0000
12782SI     SI112782   7.956   4.810   0.576  0.0000  0.0000  0.0000
12783SI     SI112783   3.142   5.877   0.896  0.0000  0.0000  0.0000
12784SI     SI112784   0.972   0.370   9.046  0.0000  0.0000  0.0000
12785SI     SI112785   2.810   3.409   8.992  0.0000  0.0000  0.0000
12786SI     SI112786   2.830   8.998   9.042  0.0000  0.0000  0.0000
12787SI     SI112787   0.166   0.661   9.366  0.0000  0.0000  0.0000
12788SI     SI112788   5.994   3.618   9.231  0.0000  0.0000  0.0000
12789SI     SI112789   7.719   3.393   9.601  0.0000  0.0000  0.0000
12790SI     SI112790   5.792   2.040   9.551  0.0000  0.0000  0.0000
12791SI     SI112791   8.979   2.353   1.302  0.0000  0.0000  0.0000
12792SI     SI112792   1.321   2.863   9.043  0.0000  0.0000  0.0000
12793SI     SI112793   1.610   5.722   0.835  0.0000  0.0000  0.0000
12794SI     SI112794   0.433   3.651   8.366  0.0000  0.0000  0.0000
12795SI     SI112795   7.762   6.073   9.191  0.0000  0.0000  0.0000
12796SI     SI112796   1.174   8.556   0.774  0.0000  0.0000  0.0000
12797SI     SI112797   1.030   5.197   8.375  0.0000  0.0000  0.0000
12798SI     SI112798   5.310   0.640   9.251  0.0000  0.0000  0.0000
12799SI     SI112799   0.974   6.507   9.232  0.0000  0.0000  0.0000
12800SI     SI112800   6.454   3.778   9.283  0.0000  0.0000  0.0000
12801SI     SI112801   3.808   2.292   0.947  0.0000  0.0000  0.0000
12802SI     SI112802   5.632   6.460   1.160  0.0000  0.0000  0.0000
12803SI     SI112803   4.548   4.174   0.595  0.0000  0.0000  0.0000
12804SI     SI112804   5.399   2.531   1.393  0.0000  0.0000  0.0000
12805SI     SI112805   2.178   2.166   1.107  0.0000  0.0000  0.0000
12806SI     SI112806   6.491   0.119   0.903  0.0000  0.0000  0.0000
12807SI     SI112807   5.035   1.702   1.076  0.0000  0.0000  0.0000
12808SI     SI112808   8.496   1.929   8.467  0.0000  0.0000  0.0000
12809SI     SI112809   8.775   8.291   9.334  0.0000  0.0000  0.0000
12810SI     SI112810   7.875   8.783   9.101  0.0000  0.0000  0.0000
12811SI     SI112811   8.123   0.395   9.148  0.0000  0.0000  0.0000
12812SI     SI112812   6.026   8.062   0.540  0.0000  0.0000  0.0000
12813SI     SI112813   1.647   3.463   9.464  0.0000  0.0000  0.0000
12814SI     SI112814   3.673   7.595   9.441  0.0000  0.0000  0.0000
12815SI     SI112815   8.210   8.881   0.783  0.0000  0.0000  0.0000
12816SI     SI112816   7.391   5.243   8.467  0.0000  0.0000  0.0000
12817SI     SI112817   1.910   3.715   9.220  0.0000  0.0000  0.0000
12818SI     SI112818   3.643   9.423   0.057  0.0000  0.0000  0.0000
12819SI     SI112819   7.955   6.224   0.091  0.0000  0.0000  0.0000
12820SI     SI112820   7.600   0.012   0.295  0.0000  0.0000  0.0000
12821SI     SI112821   5.257   1.446   9.036  0.0000  0.0000  0.0000
12822SI     SI112822   3.493   4.471   8.396  0.0000  0.0000  0.0000
12823SI     SI112823   8.254   1.148   9.234  0.0000  0.0000  0.0000
12824SI     SI112824   6.155   5.113   8.998  0.0000  0.0000  0.0000
12825SI     SI112825   2.114   0.248   0.747  0.0000  0.0000  0.0000
12826SI     SI112826   9.281   2.207   9.357  0.0000  0.0000  0.0000
12827SI     SI112827   0.041   7.013   1.232  0.0000  0.0000  0.0000
12828SI     SI112828   9.570   7.608   9.208  0.0000  0.0000  0.0000
12829SI     SI112829   5.026   4.034   8.808  0.0000  0.0000  0.0000
12830SI     SI112830   7.037   0.289   8.407  0.0000  0.0000  0.0000
12831SI     SI112831   2.105   9.348   1.365  0.0000  0.0000  0.0000
12832SI     SI112832   7.312   9.026   9.425  0.0000  0.0000  0.0000
12833SI     SI112833   1.395   6.991   0.203  0.0000  0.0000  0.0000
12834SI     SI112834   5.026   4.600   9.433  0.0000  0.0000  0.0000
12835SI     SI112835   4.879   4.507   0.999  0.0000  0.0000  0.0000
12836SI     SI112836   4.615   5.571   0.694  0.0000  0.0000  0.0000
12837SI     SI112837   7.216   0.369   0.038  0.0000  0.0000  0.0000
12838SI     SI112838   7.844   7.730   0.557  0.0000  0.0000  0.0000
12839SI     SI112839   3.156   0.686   8.514  0.0000  0.0000  0.0000
12840SI     SI112840   1.243   9.414   0.661  0.0000  0.0000  0.0000
12841SI     SI112841   9.194   7.712   9.023  0.0000  0.0000  0.0000
12842SI     SI112842   3.655   8.785   0.715  0.0000  0.0000  0.0000
12843SI     SI112843   4.716   8.587   8.586  0.0000  0.0000  0.0000
12844SI     SI112844   8.912   6.045   0.058  0.0000  0.0000  0.0000
12845SI     SI112845   0.412   6.076   0.888  0.0000  0.0000  0.0000
12846SI     SI112846   0.450   1.709   0.980  0.0000  0.0000  0.0000
12847SI     SI112847   2.407   0.180   8.426  0.0000  0.0000  0.0000
12848SI     SI112848   2.629   1.149   0.098  0.0000  0.0000  0.0000
12849SI     SI112849   5.310   5.227   0.183  0.0000  0.0000  0.0000
12850SI     SI112850   2.717   2.210   1.148  0.0000  0.0000  0.0000
12851SI     SI112851   8.540   5.104   0.338  0.0000  0.0000  0.0000
12852SI     SI112852   6.885   9.138   9.111  0.0000  0.0000  0.0000
12853SI     SI112853   5.797   4.318   1.014  0.0000  0.0000  0.0000
12854SI     SI112854   8.257   4.426   8.639  0.0000  0.0000  0.0000
12855SI     SI112855   4.033   5.039   0.349  0.0000  0.0000  0.0000
12856SI     SI112856   3.801   4.846   0.248  0.0000  0.0000  0.0000
12857SI     SI112857   7.024   7.125   8.620  0.0000  0.0000  0.0000
12858SI     SI112858   3.492   3.662   8.402  0.0000  0.0000  0.0000
12859SI     SI112859   6.442   9.126   8.397  0.0000  0.0000  0.0000
12860SI     SI112860   5.850   4.788   0.871  0.0000  0.0000  0.0000
12861SI     SI112861   5.523   3.155   0.938  0.0000  0.0000  0.0000
12862SI     SI112862   9.312   6.351   0.155  0.0000  0.0000  0.0000
12863SI     SI112863   5.916   4.559   8.716  0.0000  0.0000  0.0000
12864SI     SI112864   2.523   6.699   8.862  0.0000  0.0000  0.0000
12865SI     SI112865   6.137   2.140   0.593  0.0000  0.0000  0.0000
12866SI     SI112866   8.704   7.305   0.120  0.0000  0.0000  0.0000
12867SI     SI112867   5.635   1.006   8.293  0.0000  0.0000  0.0000
12868SI     SI112868   8.426   2.461   1.232  0.0000  0.0000  0.0000
12869SI     SI112869   9.119   2.643   9.492  0.0000  0.0000  0.0000
12870SI     SI112870   6.948   4.784   9.421  0.0000  0.0000  0.0000
12871SI     SI112871   7.387   5.646   8.706  0.0000  0.0000  0.0000
12872SI     SI112872   2.461   1.974   8.595  0.0000  0.0000  0.0000
12873SI     SI112873   0.088   4.601   1.063  0.0000  0.0000  0.0000
12874SI     SI112874   3.231   0.935   0.215  0.0000  0.0000  0.0000
12875SI     SI112875   1.423   2.690   8.445  0.0000  0.0000  0.0000
12876SI     SI112876   5.637   1.607   0.149  0.0000  0.0000  0.0000
12877SI     SI112877   5.219   4.015   8.322  0.0000  0.0000  0.0000
12878SI     SI112878   7.824   5.959   0.216  0.0000  0.0000  0.0000
12879SI     SI112879   7.929   6.123   0.985  0.0000  0.0000  0.0000
12880SI     SI112880   1.752   0.543   8.708  0.0000  0.0000  0.0000
12881SI     SI112881   0.635   4.063   0.514  0.0000  0.0000  0.0000
12882SI     SI112882   1.078   3.056   0.655  0.0000  0.0000  0.0000
12883SI     SI112883   2.958   6.579   9.423  0.0000  0.0000  0.0000
12884SI     SI112884   4.763   9.438   0.607  0.0000  0.0000  0.0000
12885SI     SI112885   1.912   2.198   9.188  0.0000  0.0000  0.0000
12886SI     SI112886   6.414   0.320   8.641  0.0000  0.0000  0.0000
12887SI     SI112887   1.855   3.142   8.444  0.0000  0.0000  0.0000
12888SI     SI112888   3.407   3.954   8.324  0.0000  0.0000  0.0000
12889SI     SI112889   7.485   6.043   8.658  0.0000  0.0000  0.0000
12890SI     SI112890   4.250   9.491   0.356  0.0000  0.0000  0.0000
12891SI     SI112891   1.416   5.857   8.564  0.0000  0.0000  0.0000
12892SI     SI112892   1.303   1.463   0.646  0.0000  0.0000  0.0000
12893SI     SI112893   1.675   1.905   1.052  0.0000  0.0000  0.0000
12894SI     SI112894   2.946   7.538   0.217  0.0000  0.0000  0.0000
12895SI     SI112895   7.608   2.101   9.556  0.0000  0.0000  0.0000
12896SI     SI112896   5.527   1.668   8.700  0.0000  0.0000  0.0000
12897SI     SI112897   7.203   0.073   1.204  0.0000  0.0000  0.0000
12898SI     SI112898   9.225   7.450   0.363  0.0000  0.0000  0.0000
12899SI     SI112899   3.220   4.463   1.292  0.0000  0.0000  0.0000
12900SI     SI112900   0.186   5.632   8.540  0.0000  0.0000  0.0000
12901SI     SI112901   7.063   1.162   8.688  0.0000  0.0000  0.0000
12902SI     SI112902   7.273   1.646   8.650  0.0000  0.0000  0.0000
12903SI     SI112903   0.080   6.489   1.243  0.0000  0.0000  0.0000
12904SI     SI112904   3.210   4.185   8.915  0.0000  0.0000  0.0000
12905SI     SI112905   1.575   0.535   9.189  0.0000  0.0000  0.0000
12906SI     SI112906   6.193   9.143   0.576  0.0000  0.0000  0.0000
12907SI     SI112907   0.971   6.443   0.420  0.0000  0.0000  0.0000
12908SI     SI112908   5.321   4.030   9.209  0.0000  0.0000  0.0000
12909SI     SI112909   7.075   6.942   0.415  0.0000  0.0000  0.0000
12910SI     SI112910   5.838   6.631   0.205  0.0000  0.0000  0.0000
12911SI     SI112911   5.930   7.161   1.034  0.0000  0.0000  0.0000
12912SI     SI112912   3.854   6.256   8.303  0.0000  0.0000  0.0000
12913SI     SI112913   0.237   4.589   9.274  0.0000  0.0000  0.0000
12914SI     SI112914   0.514   5.317   8.983  0.0000  0.0000  0.0000
12915SI     SI112915   4.442   2.954   0.968  0.0000  0.0000  0.0000
12916SI     SI112916   6.229   7.823   9.193  0.0000  0.0000  0.0000
12917SI     SI112917   7.983   0.087   8.762  0.0000  0.0000  0.0000
12918SI     SI112918   4.023   3.669   0.738  0.0000  0.0000  0.0000
12919SI     SI112919   3.109   4.619   0.832  0.0000  0.0000  0.0000
12920SI     SI112920   2.787   0.371   8.562  0.0000  0.0000  0.0000
12921SI     SI112921   4.348   5.101   8.957  0.0000  0.0000  0.0000
12922SI     SI112922   6.411   2.005   0.655  0.0000  0.0000  0.0000
12923SI     SI112923   4.012   6.838   0.659  0.0000  0.0000  0.0000
12924SI     SI112924   1.827   4.808   1.112  0.0000  0.0000  0.0000
12925SI     SI112925   5.562   6.718   9.322  0.0000  0.0000  0.0000
12926SI     SI112926   6.504   7.662   9.173  0.0000  0.0000  0.0000
12927SI     SI112927   9.422   5.924   9.434  0.0000  0.0000  0.0000
12928SI     SI112928   7.058   5.554   0.110  0.0000  0.0000  0.0000
12929SI     SI112929   2.558   8.348   8.580  0.0000  0.0000  0.0000
12930SI     SI112930   5.801   6.226   1.264  0.0000  0.0000  0.0000
12931SI     SI112931   2.468   6.623   8.565  0.0000  0.0000  0.0000
12932SI     SI112932   8.796   6.318   1.387  0.0000  0.0000  0.0000
12933SI     SI112933   7.352   1.758   0.605  0.0000  0.0000  0.0000
12934SI     SI112934   4.505   5.330   8.505  0.0000  0.0000  0.0000
12935SI     SI112935   6.086   8.713   9.398  0.0000  0.0000  0.0000
12936SI     SI112936   7.616   6.566   0.880  0.0000  0.0000  0.0000
12937SI     SI112937   1.376   7.254   0.633  0.0000  0.0000  0.0000
12938SI     SI112938   9.314   8.575   0.500  0.0000  0.0000  0.0000
12939SI     SI112939   1.017   7.116   0.789  0.0000  0.0000  0.0000
12940SI     SI112940   1.307   2.623   8.875  0.0000  0.0000  0.0000
12941SI     SI112941   7.296   9.099   0.827  0.0000  0.0000  0.0000
12942SI     SI112942   4.231   5.621   8.760  0.0000  0.0000  0.0000
12943SI     SI112943   3.299   0.822   0.488  0.0000  0.0000  0.0000
12944SI     SI112944   6.447   7.438   0.754  0.0000  0.0000  0.0000
12945SI     SI112945   4.598   1.998   1.275  0.0000  0.0000  0.0000
12946SI     SI112946   1.416   5.065   0.698  0.0000  0.0000  0.0000
12947SI     SI112947   3.526   5.467   8.748  0.0000  0.0000  0.0000
12948SI     SI112948   1.350   0.695   9.068  0.0000  0.0000  0.0000
12949SI     SI112949   8.859   3.423   8.770  0.0000  0.0000  0.0000
12950SI     SI112950   9.541   7.048   8.565  0.0000  0.0000  0.0000
12951SI     SI112951   4.177   4.879   0.579  0.0000  0.0000  0.0000
12952SI     SI112952   1.289   7.177   0.910  0.0000  0.0000  0.0000
12953SI     SI112953   0.925   6.047   9.340  0.0000  0.0000  0.0000
12954SI     SI112954   1.110   6.242   8.632  0.0000  0.0000  0.0000
12955SI     SI112955   3.433   6.567   0.436  0.0000  0.0000  0.0000
12956SI     SI112956   1.869   8.082   9.462  0.0000  0.0000  0.0000
12957SI     SI112957   5.128   8.602   8.767  0.0000  0.0000  0.0000
12958SI     SI112958   7.009   8.444   1.041  0.0000  0.0000  0.0000
12959SI     SI112959   9.105   5.126   8.511  0.0000  0.0000  0.0000
12960SI     SI112960   9.321   1.425   0.551  0.0000  0.0000  0.0000
12961SI     SI112961   2.943   4.677   1.096  0.0000  0.0000  0.0000
12962SI     SI112962   0.574   8.195   8.756  0.0000  0.0000  0.0000
12963SI     SI112963   2.007   4.975   0.244  0.0000  0.0000  0.0000
12964SI     SI112964   2.829   1.908   0.495  0.0000  0.0000  0.0000
12965SI     SI112965   2.284   7.738   1.240  0.0000  0.0000  0.0000
12966SI     SI112966   8.806   5.697   9.218  0.0000  0.0000  0.0000
12967SI     SI112967   1.073   0.638   9.180  0.0000  0.0000  0.0000
12968SI     SI112968   2.072   6.206   1.300  0.0000  0.0000  0.0000
12969SI     SI112969   6.615   6.396   9.064  0.0000  0.0000  0.0000
12970SI     SI112970   4.432   0.697   1.304  0.0000  0.0000  0.0000
12971SI     SI112971   1.276   8.938   8.789  0.0000  0.0000  0.0000
12972SI     SI112972   0.204   8.720   8.766  0.0000  0.0000  0.0000
12973SI     SI112973   6.791   3.851   0.414  0.0000  0.0000  0.0000
12974SI     SI112974   4.225   8.414   0.203  0.0000  0.0000  0.0000
12975SI     SI112975   8.321   4.543   0.520  0.0000  0.0000  0.0000
12976SI     SI112976   8.564   4.788   8.419  0.0000  0.0000  0.0000
12977SI     SI112977   4.839   1.147   8.917  0.0000  0.0000  0.0000
12978SI     SI112978   0.546   6.428   0.581  0.0000  0.0000  0.0000
12979SI     SI112979   0.259   9.321   0.232  0.0000  0.0000  0.0000
12980SI     SI112980   6.957   4.372   1.191  0.0000  0.0000  0.0000
12981SI     SI112981   0.167   6.617   9.209  0.0000  0.0000  0.0000
12982SI     SI112982   2.094   0.466   8.327  0.0000  0.0000  0.0000
12983SI     SI112983   1.572   0.125   1.136  0.0000  0.0000  0.0000
12984SI     SI112984   7.118   1.728   0.403  0.0000  0.0000  0.0000
12985SI     SI112985   4.865   0.879   0.200  0.0000  0.0000  0.0000
12986SI     SI112986   5.855   4.273   0.534  0.0000  0.0000  0.0000
12987SI     SI112987   2.454   0.715   1.146  0.0000  0.0000  0.0000
12988SI     SI112988   2.942   2.370   0.403  0.0000  0.0000  0.0000
12989SI     SI112989   2.742   6.558   9.008  0.0000  0.0000  0.0000
12990SI     SI112990   8.917   6.398   9.007  0.0000  0.0000  0.0000
12991SI     SI112991   7.095   8.435   0.738  0.0000  0.0000  0.0000
12992SI     SI112992   2.231   3.298   1.337  0.0000  0.0000  0.0000
12993SI     SI112993   5.218   4.308   0.350  0.0000  0.0000  0.0000
12994SI     SI112994   5.860   1.504   0.797  0.0000  0.0000  0.0000
12995SI     SI112995   7.514   4.647   0.612  0.0000  0.0000  0.0000
12996SI     SI112996   2.175   8.436   0.596  0.0000  0.0000  0.0000
12997SI     SI112997   5.864   0.575   8.415  0.0000  0.0000  0.0000
12998SI     SI112998   8.492   8.282   8.862  0.0000  0.0000  0.0000
12999SI     SI112999   3.722   6.930   9.239  0.0000  0.0000  0.0000
13000SI     SI113000   0.630   9.314   8.786  0.0000  0.0000  0.0000
13001SI     SI113001   3.661   0.568   9.575  0.0000  0.0000  0.0000
13002SI     SI113002   4.649   2.547   8.550  0.0000  0.0000  0.0000
13003SI     SI113003   7.051   7.427   9.131  0.0000  0.0000  0.0000
13004SI     SI113004   4.570   7.429   8.598  0.0000  0.0000  0.0000
13005SI     SI113005   4.295   0.523   9.194  0.0000  0.0000  0.0000
13006SI     SI113006   4.556   4.398   0.125  0.0000  0.0000  0.0000
13007SI     SI113007   0.479   8.177   8.371  0.0000  0.0000  0.0000
13008SI     SI113008   9.103   0.708   8.967  0.0000  0.0000  0.0000
13009SI     SI113009   1.352   5.843   0.947  0.0000  0.0000  0.0000
13010SI     SI113010   2.466   5.377   8.886  0.0000  0.0000  0.0000
13011SI     SI113011   2.535   4.281   9.352  0.0000  0.0000  0.0000
13012SI     SI113012   4.416   1.069   8.695  0.0000  0.0000  0.0000
13013SI     SI113013   0.689   4.684   0.546  0.0000  0.0000  0.0000
13014SI     SI113014   3.825   0.445   9.097  0.0000  0.0000  0.0000
13015SI     SI113015   0.713   4.055   9.050  0.0000  0.0000  0.0000
13016SI     SI113016   8.736   5.971   8.803  0.0000  0.0000  0.0000
13017SI     SI113017   2.060   9.391   9.117  0.0000  0.0000  0.0000
13018SI     SI113018   4.598   8.326   0.934  0.0000  0.0000  0.0000
13019SI     SI113019   7.289   0.286   9.372  0.0000  0.0000  0.0000
13020SI     SI113020   4.467   0.356   8.991  0.0000  0.0000  0.0000
13021SI     SI113021   7.995   7.013   8.852  0.0000  0.0000  0.0000
13022SI     SI113022   7.936   7.115   9.383  0.0000  0.0000  0.0000
13023SI     SI113023   8.595   5.211   9.076  0.0000  0.0000  0.0000
13024SI     SI113024   6.639   1.854   1.044  0.0000  0.0000  0.0000
13025SI     SI113025   3.780   2.692   9.413  0.0000  0.0000  0.0000
13026SI     SI113026   0.211   2.431   9.240  0.0000  0.0000  0.0000
13027SI     SI113027   7.362   0.872   8.624  0.0000  0.0000  0.0000
13028SI     SI113028   5.180   2.986   0.315  0.0000  0.0000  0.0000
13029SI     SI113029   7.759   7.231   0.787  0.0000  0.0000  0.0000
13030SI     SI113030   1.733   9.158   8.800  0.0000  0.0000  0.0000
13031SI     SI113031   3.887   4.336   9.343  0.0000  0.0000  0.0000
13032SI     SI113032   9.238   9.254   9.133  0.0000  0.0000  0.0000
13033SI     SI113033   2.162   1.164   9.224  0.0000  0.0000  0.0000
13034SI     SI113034   1.528   6.155   9.425  0.0000  0.0000  0.0000
13035SI     SI113035   0.261   6.522   8.648  0.0000  0.0000  0.0000
13036SI     SI113036   2.181   7.935   0.544  0.0000  0.0000  0.0000
13037SI     SI113037   4.166   0.140   8.517  0.0000  0.0000  0.0000
13038SI     SI113038   0.055   2.727   9.538  0.0000  0.0000  0.0000
13039SI     SI113039   1.993   1.065   0.058  0.0000  0.0000  0.0000
13040SI     SI113040   1.854   0.133   0.260  0.0000  0.0000  0.0000
13041SI     SI113041   2.116   5.439   9.597  0.0000  0.0000  0.0000
13042SI     SI113042   7.481   1.272   0.714  0.0000  0.0000  0.0000
13043SI     SI113043   2.879   6.763   9.193  0.0000  0.0000  0.0000
13044SI     SI113044   1.541   5.143   0.429  0.0000  0.0000  0.0000
13045SI     SI113045   4.278   9.163   0.916  0.0000  0.0000  0.0000
13046SI     SI113046   1.305   2.309   0.131  0.0000  0.0000  0.0000
13047SI     SI113047   3.114   4.902   0.713  0.0000  0.0000  0.0000
13048SI     SI113048   6.404   0.608   8.725  0.0000  0.0000  0.0000
13049SI     SI113049   5.778   0.518   0.768  0.0000  0.0000  0.0000
13050SI     SI113050   1.698   5.591   1.108  0.0000  0.0000  0.0000
13051SI     SI113051   3.691   3.676   8.986  0.0000  0.0000  0.0000
13052SI     SI113052   7.798   5.442   8.442  0.0000  0.0000  0.0000
13053SI     SI113053   1.878   8.134   8.374  0.0000  0.0000  0.0000
13054SI     SI113054   2.249   6.319   0.377  0.0000  0.0000  0.0000
13055SI     SI113055   1.890   8.762   0.490  0.0000  0.0000  0.0000
13056SI     SI113056   7.908   6.582   1.217  0.0000  0.0000  0.0000
13057SI     SI113057   0.910   2.297   8.874  0.0000  0.0000  0.0000
13058SI     SI113058   9.421   6.314   9.145  0.0000  0.0000  0.0000
13059SI     SI113059   3.149   7.022   0.794  0.0000  0.0000  0.0000
13060SI     SI113060   5.424   1.938   8.377  0.0000  0.0000  0.0000
13061SI     SI113061   2.247   4.486   0.552  0.0000  0.0000  0.0000
13062SI     SI113062   4.827   2.473   0.536  0.0000  0.0000  0.0000
13063SI     SI113063   5.566   1.613   9.445  0.0000  0.0000  0.0000
13064SI     SI113064   4.432   5.813   8.642  0.0000  0.0000  0.0000
13065SI     SI113065   8.505   3.180   9.552  0.0000  0.0000  0.0000
13066SI     SI113066   8.049   8.095   0.169  0.0000  0.0000  0.0000
13067SI     SI113067   9.150   3.446   9.531  0.0000  0.0000  0.0000
13068SI     SI113068   6.569   8.037   8.489  0.0000  0.0000  0.0000
13069SI     SI113069   5.107   0.660   8.402  0.0000  0.0000  0.0000
13070SI     SI113070   6.845   7.429   0.899  0.0000  0.0000  0.0000
13071SI     SI113071   8.141   3.151   9.410  0.0000  0.0000  0.0000
13072SI     SI113072   2.963   9.497   9.134  0.0000  0.0000  0.0000
13073SI     SI113073   2.432   7.380   8.624  0.0000  0.0000  0.0000
13074SI     SI113074   8.070   4.841   8.368  0.0000  0.0000  0.0000
13075SI     SI113075   8.146   0.586   0.153  0.0000  0.0000  0.0000
13076SI     SI113076   0.072   2.543   0.179  0.0000  0.0000  0.0000
13077SI     SI113077   3.587   8.146   0.247  0.0000  0.0000  0.0000
13078SI     SI113078   6.270   8.270   8.706  0.0000  0.0000  0.0000
13079SI     SI113079   4.455   3.346   0.697  0.0000  0.0000  0.0000
13080SI     SI113080   3.814   5.961   0.946  0.0000  0.0000  0.0000
13081SI     SI113081   6.952   2.711   0.618  0.0000  0.0000  0.0000
13082SI     SI113082   0.336   4.868   8.784  0.0000  0.0000  0.0000
13083SI     SI113083   8.499   0.835   0.468  0.0000  0.0000  0.0000
13084SI     SI113084   7.343   0.930   9.081  0.0000  0.0000  0.0000
13085SI     SI113085   4.706   3.021   0.378  0.0000  0.0000  0.0000
13086SI     SI113086   9.475   8.565   8.551  0.0000  0.0000  0.0000
13087SI     SI113087   3.946   4.179   0.618  0.0000  0.0000  0.0000
13088SI     SI113088   7.113   8.116   8.679  0.0000  0.0000  0.0000
13089SI     SI113089   5.319   7.329   0.193  0.0000  0.0000  0.0000
13090SI     SI113090   3.970   0.265   8.907  0.0000  0.0000  0.0000
13091SI     SI113091   1.384   4.187   0.691  0.0000  0.0000  0.0000
13092SI     SI113092   6.941   1.096   9.218  0.0000  0.0000  0.0000
13093SI     SI113093   8.124   0.459   0.440  0.0000  0.0000  0.0000
13094SI     SI113094   5.412   5.807   9.349  0.0000  0.0000  0.0000
13095SI     SI113095   5.557   0.454   0.964  0.0000  0.0000  0.0000
13096SI     SI113096   6.313   3.810   8.357  0.0000  0.0000  0.0000
13097SI     SI113097   7.573   0.691   8.486  0.0000  0.0000  0.0000
13098SI     SI113098   6.431   9.350   0.279  0.0000  0.0000  0.0000
13099SI     SI113099   7.064   5.741   0.344  0.0000  0.0000  0.0000
13100SI     SI113100   8.904   3.549   1.077  0.0000  0.0000  0.0000
13101SI     SI113101   7.351   0.189   0.260  0.0000  0.0000  0.0000
13102SI     SI113102   5.881   2.910   8.806  0.0000  0.0000  0.0000
13103SI     SI113103   1.516   5.048   8.661  0.0000  0.0000  0.0000
13104SI     SI113104   0.924   6.409   0.118  0.0000  0.0000  0.0000
13105SI     SI113105   3.796   2.900   0.887  0.0000  0.0000  0.0000
13106SI     SI113106   6.081   6.077   0.317  0.0000  0.0000  0.0000
13107SI     SI113107   2.065   7.632   0.006  0.0000  0.0000  0.0000
13108SI     SI113108   5.730   7.814   9.053  0.0000  0.0000  0.0000
13109SI     SI113109   2.301   1.566   0.679  0.0000  0.0000  0.0000
13110SI     SI113110   1.984   2.959   8.627  0.0000  0.0000  0.0000
13111SI     SI113111   1.814   3.878   0.129  0.0000  0.0000  0.0000
13112SI     SI113112   1.245   9.342   1.137  0.0000  0.0000  0.0000
13113SI     SI113113   5.150   5.503   9.117  0.0000  0.0000  0.0000
13114SI     SI113114   6.594   5.624   0.914  0.0000  0.0000  0.0000
13115SI     SI113115   3.319   5.730   0.200  0.0000  0.0000  0.0000
13116SI     SI113116   9.174   3.830   8.842  0.0000  0.0000  0.0000
13117SI     SI113117   0.316   0.065   8.932  0.0000  0.0000  0.0000
13118SI     SI113118   2.303   5.040   9.198  0.0000  0.0000  0.0000
13119SI     SI113119   2.102   3.993   8.774  0.0000  0.0000  0.0000
13120SI     SI113120   5.642   8.930   8.871  0.0000  0.0000  0.0000
13121SI     SI113121   6.541   0.976   9.465  0.0000  0.0000  0.0000
13122SI     SI113122   3.155   5.387   9.534  0.0000  0.0000  0.0000
13123SI     SI113123   0.875   7.493   0.614  0.0000  0.0000  0.0000
13124SI     SI113124   1.935   6.156   1.033  0.0000  0.0000  0.0000
13125SI     SI113125   9.434   2.108   0.280  0.0000  0.0000  0.0000
13126SI     SI113126   1.583   5.290   0.813  0.0000  0.0000  0.0000
13127SI     SI113127   8.347   7.087   9.272  0.0000  0.0000  0.0000
13128SI     SI113128   9.181   4.280   8.980  0.0000  0.0000  0.0000
13129SI     SI113129   1.619   8.590   0.995  0.0000  0.0000  0.0000
13130SI     SI113130   4.983   2.344   0.305  0.0000  0.0000  0.0000
13131SI     SI113131   0.398   8.448   0.763  0.0000  0.0000  0.0000
13132SI     SI113132   1.464   7.770   0.468  0.0000  0.0000  0.0000
13133SI     SI113133   4.768   9.592   0.345  0.0000  0.0000  0.0000
13134SI     SI113134   7.849   0.367   9.542  0.0000  0.0000  0.0000
13135SI     SI113135   3.357   5.786   1.085  0.0000  0.0000  0.0000
13136SI     SI113136   2.825   7.075   1.257  0.0000  0.0000  0.0000
13137SI     SI113137   4.031   1.585   0.258  0.0000  0.0000  0.0000
13138SI     SI113138   8.121   3.756   1.060  0.0000  0.0000  0.0000
13139SI     SI113139   3.447   4.516   8.686  0.0000  0.0000  0.0000
13140SI     SI113140   5.671   9.153   1.349  0.0000  0.0000  0.0000
13141SI     SI113141   3.683   5.521   0.849  0.0000  0.0000  0.0000
13142SI     SI113142   1.853   8.968   0.935  0.0000  0.0000  0.0000
13143SI     SI113143   3.680   4.301   0.495  0.0000  0.0000  0.0000
13144SI     SI113144   6.627   3.803   9.023  0.0000  0.0000  0.0000
13145SI     SI113145   7.009   7.740   0.538  0.0000  0.0000  0.0000
13146SI     SI113146   1.249   5.589   8.974  0.0000  0.0000  0.0000
13147SI     SI113147   5.891   3.160   1.406  0.0000  0.0000  0.0000
13148SI     SI113148   4.835   6.668   0.292  0.0000  0.0000  0.0000
13149SI     SI113149   2.490   3.464   1.381  0.0000  0.0000  0.0000
13150SI     SI113150   5.695   0.824   9.039  0.0000  0.0000  0.0000
13151SI     SI113151   4.961   3.311   0.004  0.0000  0.0000  0.0000
13152SI     SI113152   9.352   4.069   0.022  0.0000  0.0000  0.0000
13153SI     SI113153   8.524   9.349   8.458  0.0000  0.0000  0.0000
13154SI     SI113154   5.261   4.564   0.701  0.0000  0.0000  0.0000
13155SI     SI113155   6.810   8.901   9.308  0.0000  0.0000  0.0000
13156SI     SI113156   2.650   2.527   9.548  0.0000  0.0000  0.0000
13157SI     SI113157   4.288   0.860   0.887  0.0000  0.0000  0.0000
13158SI     SI113158   2.746   2.642   0.689  0.0000  0.0000  0.0000
13159SI     SI113159   3.451   5.631   9.291  0.0000  0.0000  0.0000
13160SI     SI113160   6.954   9.362   8.755  0.0000  0.0000  0.0000
13161SI     SI113161   4.839   1.338   0.023  0.0000  0.0000  0.0000
13162SI     SI113162   4.718   5.899   0.225  0.0000  0.0000  0.0000
13163SI     SI113163   1.402   9.566   9.046  0.0000  0.0000  0.0000
13164SI     SI113164   6.806   6.119   0.831  0.0000  0.0000  0.0000
13165SI     SI113165   6.648   8.710   8.535  0.0000  0.0000  0.0000
13166SI     SI113166   0.918   7.362   9.390  0.0000  0.0000  0.0000
13167SI     SI113167   2.423   9.257   0.211  0.0000  0.0000  0.0000
13168SI     SI113168   3.897   8.305   0.566  0.0000  0.0000  0.0000
13169SI     SI113169   7.470   7.845   9.244  0.0000  0.0000  0.0000
13170SI     SI113170   7.161   5.211   9.534  0.0000  0.0000  0.0000
13171SI     SI113171   4.510   7.997   8.578  0.0000  0.0000  0.0000
13172SI     SI113172   6.195   2.780   8.964  0.0000  0.0000  0.0000
13173SI     SI113173   6.992   3.296   0.992  0.0000  0.0000  0.0000
13174SI     SI113174   0.507   4.925   0.654  0.0000  0.0000  0.0000
13175SI     SI113175   0.500   2.675   9.599  0.0000  0.0000  0.0000
13176SI     SI113176   0.035   2.852   9.032  0.0000  0.0000  0.0000
13177SI     SI113177   3.332   8.616   9.215  0.0000  0.0000  0.0000
13178SI     SI113178   2.344   1.384   8.760  0.0000  0.0000  0.0000
13179SI     SI113179   5.619   0.600   9.241  0.0000  0.0000  0.0000
13180SI     SI113180   2.736   5.362   9.255  0.0000  0.0000  0.0000
13181SI     SI113181   8.235   1.952   0.364  0.0000  0.0000  0.0000
13182SI     SI113182   8.755   5.612   0.683  0.0000  0.0000  0.0000
13183SI     SI113183   7.636   7.781   8.358  0.0000  0.0000  0.0000
13184SI     SI113184   3.490   4.852   9.499  0.0000  0.0000  0.0000
13185SI     SI113185   3.359   1.677   0.907  0.0000  0.0000  0.0000
13186SI     SI113186   1.473   1.504   1.306  0.0000  0.0000  0.0000
13187SI     SI113187   4.019   6.744   1.083  0.0000  0.0000  0.0000
13188SI     SI113188   9.520   3.184   9.390  0.0000  0.0000  0.0000
13189SI     SI113189   4.685   6.794   1.120  0.0000  0.0000  0.0000
13190SI     SI113190   1.033   9.295   9.349  0.0000  0.0000  0.0000
13191SI     SI113191   0.965   9.465   9.093  0.0000  0.0000  0.0000
13192SI     SI113192   5.337   8.706   0.700  0.0000  0.0000  0.0000
13193SI     SI113193   6.053   1.314   0.641  0.0000  0.0000  0.0000
13194SI     SI113194   6.621   5.129   8.619  0.0000  0.0000  0.0000
13195SI     SI113195   4.127   8.304   8.790  0.0000  0.0000  0.0000
13196SI     SI113196   8.344   7.475   1.261  0.0000  0.0000  0.0000
13197SI     SI113197   7.381   6.861   1.135  0.0000  0.0000  0.0000
13198SI     SI113198   0.438   6.333   8.798  0.0000  0.0000  0.0000
13199SI     SI113199   8.038   9.319   9.339  0.0000  0.0000  0.0000
13200SI     SI113200   6.726   4.436   0.103  0.0000  0.0000  0.0000
13201SI     SI113201   8.673   0.125   9.342  0.0000  0.0000  0.0000
13202SI     SI113202   4.429   3.470   8.388  0.0000  0.0000  0.0000
13203SI     SI113203   0.912   0.893   9.119  0.0000  0.0000  0.0000
13204SI     SI113204   4.364   0.005   0.851  0.0000  0.0000  0.0000
13205SI     SI113205   3.887   9.599   8.572  0.0000  0.0000  0.0000
13206SI     SI113206   4.905   8.255   8.306  0.0000  0.0000  0.0000
13207SI     SI113207   1.374   9.590   9.532  0.0000  0.0000  0.0000
13208SI     SI113208   8.867   7.422   8.823  0.0000  0.0000  0.0000
13209SI     SI113209   4.097   3.401   9.232  0.0000  0.0000  0.0000
13210SI     SI113210   9.251   4.431   1.326  0.0000  0.0000  0.0000
13211SI     SI113211   4.722   4.640   0.528  0.0000  0.0000  0.0000
13212SI     SI113212   8.703   8.847   8.271  0.0000  0.0000  0.0000
13213SI     SI113213   7.424   4.865   8.966  0.0000  0.0000  0.0000
13214SI     SI113214   0.050   7.655   8.461  0.0000  0.0000  0.0000
13215SI     SI113215   6.188   2.386   0.416  0.0000  0.0000  0.0000
13216SI     SI113216   7.781   8.237   9.413  0.0000  0.0000  0.0000
13217SI     SI113217   3.656   8.789   9.496  0.0000  0.0000  0.0000
13218SI     SI113218   6.220   4.178   9.246  0.0000  0.0000  0.0000
13219SI     SI113219   3.494   1.402   0.947  0.0000  0.0000  0.0000
13220SI     SI113220   2.760   4.435   0.575  0.0000  0.0000  0.0000
13221SI     SI113221   2.451   3.919   8.441  0.0000  0.0000  0.0000
13222SI     SI113222   0.666   9.484   9.032  0.0000  0.0000  0.0000
13223SI     SI113223   9.079   7.655   0.175  0.0000  0.0000  0.0000
13224SI     SI113224   8.180   2.588   8.395  0.0000  0.0000  0.0000
13225SI     SI113225   1.162   5.108   9.514  0.0000  0.0000  0.0000
13226SI     SI113226   8.327   9.581   8.510  0.0000  0.0000  0.0000
13227SI     SI113227   0.363   1.931   8.657  0.0000  0.0000  0.0000
13228SI     SI113228   7.287   8.592   8.659  0.0000  0.0000  0.0000
13229SI     SI113229   5.507   7.885   1.067  0.0000  0.0000  0.0000
13230SI     SI113230   7.634   5.888   0.721  0.0000  0.0000  0.0000
13231SI     SI113231   6.627   4.565   8.765  0.0000  0.0000  0.0000
13232SI     SI113232   3.671   3.466   9.517  0.0000  0.0000  0.0000
13233SI     SI113233   5.782   1.140   1.139  0.0000  0.0000  0.0000
13234SI     SI113234   4.789   8.655   0.544  0.0000  0.0000  0.0000
13235SI     SI113235   9.503   3.256   0.566  0.0000  0.0000  0.0000
13236SI     SI113236   5.586   8.752   9.536  0.0000  0.0000  0.0000
13237SI     SI113237   2.565   9.050   1.148  0.0000  0.0000  0.0000
13238SI     SI113238   9.030   7.601   8.630  0.0000  0.0000  0.0000
13239SI     SI113239   7.522   2.307   0.370  0.0000  0.0000  0.0000
13240SI     SI113240   5.203   0.189   8.638  0.0000  0.0000  0.0000
13241SI     SI113241   8.452   5.888   8.456  0.0000  0.0000  0.0000
13242SI     SI113242   1.499   2.131   9.182  0.0000  0.0000  0.0000
13243SI     SI113243   9.376   9.064   0.824  0.0000  0.0000  0.0000
13244SI     SI113244   4.108   4.017   0.418  0.0000  0.0000  0.0000
13245SI     SI113245   6.071   7.245   9.185  0.0000  0.0000  0.0000
13246SI     SI113246   5.653   6.879   0.294  0.0000  0.0000  0.0000
13247SI     SI113247   6.274   7.352   0.091  0.0000  0.0000  0.0000
13248SI     SI113248   6.122   5.763   0.327  0.0000  0.0000  0.0000
13249SI     SI113249   4.842   3.550   0.147  0.0000  0.0000  0.0000
13250SI     SI113250   7.679   4.167   0.231  0.0000  0.0000  0.0000
13251SI     SI113251   5.740   1.923   1.134  0.0000  0.0000  0.0000
13252SI     SI113252   9.028   8.282   9.506  0.0000  0.0000  0.0000
13253SI     SI113253   5.390   1.290   1.044  0.0000  0.0000  0.0000
13254SI     SI113254   2.089   3.338   8.367  0.0000  0.0000  0.0000
13255SI     SI113255   6.677   7.214   9.471  0.0000  0.0000  0.0000
13256SI     SI113256   6.388   5.952   1.405  0.0000  0.0000  0.0000
13257SI     SI113257   5.351   6.564   0.146  0.0000  0.0000  0.0000
13258SI     SI113258   4.390   8.267   8.967  0.0000  0.0000  0.0000
13259SI     SI113259   9.417   2.613   9.392  0.0000  0.0000  0.0000
13260SI     SI113260   8.052   8.189   0.623  0.0000  0.0000  0.0000
13261SI     SI113261   2.596   7.633   0.815  0.0000  0.0000  0.0000
13262SI     SI113262   8.195   8.896   9.457  0.0000  0.0000  0.0000
13263SI     SI113263   2.121   5.936   8.207  0.0000  0.0000  0.0000
13264SI     SI113264   6.003   1.771   0.693  0.0000  0.0000  0.0000
13265SI     SI113265   5.580   1.568   0.663  0.0000  0.0000  0.0000
13266SI     SI113266   9.568   5.921   0.940  0.0000  0.0000  0.0000
13267SI     SI113267   1.120   3.829   8.709  0.0000  0.0000  0.0000
13268SI     SI113268   2.066   1.193   0.571  0.0000  0.0000  0.0000
13269SI     SI113269   6.868   5.396   9.051  0.0000  0.0000  0.0000
13270SI     SI113270   6.859   9.346   9.329  0.0000  0.0000  0.0000
13271SI     SI113271   5.110   8.941   0.016  0.0000  0.0000  0.0000
13272SI     SI113272   1.744   7.688   0.370  0.0000  0.0000  0.0000
13273SI     SI113273   0.902   4.469   8.925  0.0000  0.0000  0.0000
13274SI     SI113274   5.997   5.022   8.494  0.0000  0.0000  0.0000
13275SI     SI113275   3.736   8.096   8.696  0.0000  0.0000  0.0000
13276SI     SI113276   7.521   6.878   8.983  0.0000  0.0000  0.0000
13277SI     SI113277   6.612   7.525   9.438  0.0000  0.0000  0.0000
13278SI     SI113278   3.196   5.117   0.928  0.0000  0.0000  0.0000
13279SI     SI113279   7.204   8.366   8.266  0.0000  0.0000  0.0000
13280SI     SI113280   4.565   0.951   0.252  0.0000  0.0000  0.0000
13281SI     SI113281   7.274   3.579   8.196  0.0000  0.0000  0.0000
13282SI     SI113282   4.374   2.415   0.175  0.0000  0.0000  0.0000
13283SI     SI113283   9.417   0.974   9.488  0.0000  0.0000  0.0000
13284SI     SI113284   1.607   5.877   9.524  0.0000  0.0000  0.0000
13285SI     SI113285   8.198   8.687   8.872  0.0000  0.0000  0.0000
13286SI     SI113286   7.584   8.993   8.445  0.0000  0.0000  0.0000
13287SI     SI113287   1.745   3.319   8.678  0.0000  0.0000  0.0000
13288SI     SI113288   0.082   0.855   9.577  0.0000  0.0000  0.0000
13289SI     SI113289   5.790   8.812   0.453  0.0000  0.0000  0.0000
13290SI     SI113290   7.532   2.513   8.929  0.0000  0.0000  0.0000
13291SI     SI113291   7.576   2.234   8.428  0.0000  0.0000  0.0000
13292SI     SI113292   2.139   0.498   0.903  0.0000  0.0000  0.0000
13293SI     SI113293   0.886   1.559   9.504  0.0000  0.0000  0.0000
13294SI     SI113294   1.122   3.664   9.403  0.0000  0.0000  0.0000
13295SI     SI113295   6.168   2.293   1.082  0.0000  0.0000  0.0000
13296SI     SI113296   2.764   9.116   9.330  0.0000  0.0000  0.0000
13297SI     SI113297   8.139   7.715   0.483  0.0000  0.0000  0.0000
13298SI     SI113298   3.449   9.173   0.088  0.0000  0.0000  0.0000
13299SI     SI113299   7.823   8.932   8.637  0.0000  0.0000  0.0000
13300SI     SI113300   5.963   5.235   9.204  0.0000  0.0000  0.0000
13301SI     SI113301   7.047   2.909   8.364  0.0000  0.0000  0.0000
13302SI     SI113302   6.147   8.455   0.850  0.0000  0.0000  0.0000
13303SI     SI113303   1.287   6.433   1.157  0.0000  0.0000  0.0000
13304SI     SI113304   6.443   3.175   1.040  0.0000  0.0000  0.0000
13305SI     SI113305   3.458   5.967   8.924  0.0000  0.0000  0.0000
13306SI     SI113306   1.683   2.443   0.535  0.0000  0.0000  0.0000
13307SI     SI113307   4.044   0.747   8.841  0.0000  0.0000  0.0000
13308SI     SI113308   3.177   2.526   0.531  0.0000  0.0000  0.0000
13309SI     SI113309   7.747   3.627   8.301  0.0000  0.0000  0.0000
13310SI     SI113310   7.109   2.873   9.053  0.0000  0.0000  0.0000
13311SI     SI113311   7.091   6.310   9.208  0.0000  0.0000  0.0000
13312SI     SI113312   3.713   7.369   0.855  0.0000  0.0000  0.0000
13313SI     SI113313   4.882   2.860   9.523  0.0000  0.0000  0.0000
13314SI     SI113314   2.738   6.514   0.021  0.0000  0.0000  0.0000
13315SI     SI113315   2.954   9.392   1.021  0.0000  0.0000  0.0000
13316SI     SI113316   1.824   6.497   9.206  0.0000  0.0000  0.0000
13317SI     SI113317   6.599   6.753   8.470  0.0000  0.0000  0.0000
13318SI     SI113318   4.943   2.208   0.952  0.0000  0.0000  0.0000
13319SI     SI113319   7.613   3.684   0.936  0.0000  0.0000  0.0000
13320SI     SI113320   3.459   8.935   8.557  0.0000  0.0000  0.0000
13321SI     SI113321   6.596   0.853   8.726  0.0000  0.0000  0.0000
13322SI     SI113322   5.079   9.048   0.486  0.0000  0.0000  0.0000
13323SI     SI113323   7.441   4.727   9.466  0.0000  0.0000  0.0000
13324SI     SI113324   8.186   0.313   8.748  0.0000  0.0000  0.0000
13325SI     SI113325   0.745   2.467   9.256  0.0000  0.0000  0.0000
13326SI     SI113326   3.850   8.066   0.388  0.0000  0.0000  0.0000
13327SI     SI113327   2.042   9.207   0.872  0.0000  0.0000  0.0000
13328SI     SI113328   5.141   5.957   1.007  0.0000  0.0000  0.0000
13329SI     SI113329   2.076   1.193   8.413  0.0000  0.0000  0.0000
13330SI     SI113330   6.640   6.681   9.579  0.0000  0.0000  0.0000
13331SI     SI113331   7.025   2.249   1.006  0.0000  0.0000  0.0000
13332SI     SI113332   0.630   4.802   8.314  0.0000  0.0000  0.0000
13333SI     SI113333   0.675   5.670   9.178  0.0000  0.0000  0.0000
13334SI     SI113334   6.501   5.713   9.038  0.0000  0.0000  0.0000
13335SI     SI113335   6.907   2.292   8.530  0.0000  0.0000  0.0000
13336SI     SI113336   0.222   1.480   0.599  0.0000  0.0000  0.0000
13337SI     SI113337   8.911   4.758   1.222  0.0000  0.0000  0.0000
13338SI     SI113338   8.112   8.398   0.077  0.0000  0.0000  0.0000
13339SI     SI113339   3.350   3.243   9.310  0.0000  0.0000  0.0000
13340SI     SI113340   9.581   3.887   0.606  0.0000  0.0000  0.0000
13341SI     SI113341   5.099   7.640   8.880  0.0000  0.0000  0.0000
13342SI     SI113342   5.165   6.108   0.071  0.0000  0.0000  0.0000
13343SI     SI113343   3.112   5.695   9.567  0.0000  0.0000  0.0000
13344SI     SI113344   0.109   8.560   0.785  0.0000  0.0000  0.0000
13345SI     SI113345   8.136   1.178   1.292  0.0000  0.0000  0.0000
13346SI     SI113346   7.501   8.499   0.936  0.0000  0.0000  0.0000
13347SI     SI113347   2.166   2.906   0.819  0.0000  0.0000  0.0000
13348SI     SI113348   2.543   1.754   1.208  0.0000  0.0000  0.0000
13349SI     SI113349   6.187   1.065   0.790  0.0000  0.0000  0.0000
13350SI     SI113350   2.605   9.554   0.409  0.0000  0.0000  0.0000
13351SI     SI113351   0.048   5.209   9.010  0.0000  0.0000  0.0000
13352SI     SI113352   8.015   8.265   8.216  0.0000  0.0000  0.0000
13353SI     SI113353   8.639   9.036   8.877  0.0000  0.0000  0.0000
13354SI     SI113354   4.394   6.128   0.143  0.0000  0.0000  0.0000
13355SI     SI113355   6.156   5.701   0.922  0.0000  0.0000  0.0000
13356SI     SI113356   2.273   8.868   0.829  0.0000  0.0000  0.0000
13357SI     SI113357   0.164   0.514   1.172  0.0000  0.0000  0.0000
13358SI     SI113358   0.995   4.493   0.069  0.0000  0.0000  0.0000
13359SI     SI113359   3.552   1.694   9.550  0.0000  0.0000  0.0000
13360SI     SI113360   2.902   6.939   0.614  0.0000  0.0000  0.0000
13361SI     SI113361   3.728   0.887   9.110  0.0000  0.0000  0.0000
13362SI     SI113362   0.932   2.582   0.914  0.0000  0.0000  0.0000
13363SI     SI113363   6.269   5.606   1.182  0.0000  0.0000  0.0000
13364SI     SI113364   9.138   6.990   0.114  0.0000  0.0000  0.0000
13365SI     SI113365   0.717   0.814   8.644  0.0000  0.0000  0.0000
13366SI     SI113366   7.100   7.226   0.555  0.0000  0.0000  0.0000
13367SI     SI113367   7.780   4.009   9.000  0.0000  0.0000  0.0000
13368SI     SI113368   3.658   3.274   0.159  0.0000  0.0000  0.0000
13369SI     SI113369   3.361   5.676   8.599  0.0000  0.0000  0.0000
13370SI     SI113370   1.026   1.107   9.323  0.0000  0.0000  0.0000
13371SI     SI113371   2.591   9.100   8.883  0.0000  0.0000  0.0000
13372SI     SI113372   4.285   6.600   1.052  0.0000  0.0000  0.0000
13373SI     SI113373   4.337   3.417   1.124  0.0000  0.0000  0.0000
13374SI     SI113374   5.022   0.106   8.401  0.0000  0.0000  0.0000
13375SI     SI113375   6.057   0.057   1.124  0.0000  0.0000  0.0000
13376SI     SI113376   2.499   2.691   0.332  0.0000  0.0000  0.0000
13377SI     SI113377   3.341   2.842   8.682  0.0000  0.0000  0.0000
13378SI     SI113378   6.610   2.161   0.220  0.0000  0.0000  0.0000
13379SI     SI113379   5.247   3.267   0.412  0.0000  0.0000  0.0000
13380SI     SI113380   7.144   2.428   8.372  0.0000  0.0000  0.0000
13381SI     SI113381   3.416   6.176   8.439  0.0000  0.0000  0.0000
13382SI     SI113382   2.889   1.626   9.127  0.0000  0.0000  0.0000
13383SI     SI113383   1.771   2.741   0.465  0.0000  0.0000  0.0000
13384SI     SI113384   1.157   5.176   0.755  0.0000  0.0000  0.0000
13385SI     SI113385   8.718   4.393   0.284  0.0000  0.0000  0.0000
13386SI     SI113386   3.357   6.667   8.756  0.0000  0.0000  0.0000
13387SI     SI113387   3.622   3.494   0.811  0.0000  0.0000  0.0000
13388SI     SI113388   0.805   9.114   9.455  0.0000  0.0000  0.0000
13389SI     SI113389   7.632   3.466   8.949  0.0000  0.0000  0.0000
13390SI     SI113390   0.239   0.111   9.239  0.0000  0.0000  0.0000
13391SI     SI113391   4.463   7.871   9.266  0.0000  0.0000  0.0000
13392SI     SI113392   8.949   9.478   1.003  0.0000  0.0000  0.0000
13393SI     SI113393   2.430   4.601   0.945  0.0000  0.0000  0.0000
13394SI     SI113394   1.019   0.858   0.552  0.0000  0.0000  0.0000
13395SI     SI113395   3.390   7.269   9.594  0.0000  0.0000  0.0000
13396SI     SI113396   3.304   2.279   0.923  0.0000  0.0000  0.0000
13397SI     SI113397   3.058   4.441   0.589  0.0000  0.0000  0.0000
13398SI     SI113398   0.652   3.039   1.139  0.0000  0.0000  0.0000
13399SI     SI113399   7.441   2.251   9.340  0.0000  0.0000  0.0000
13400SI     SI113400   9.121   2.303   9.097  0.0000  0.0000  0.0000
13401SI     SI113401   7.397   3.650   0.210  0.0000  0.0000  0.0000
13402SI     SI113402   6.631   0.296   0.488  0.0000  0.0000  0.0000
13403SI     SI113403   4.730   4.801   8.421  0.0000  0.0000  0.0000
13404SI     SI113404   2.390   8.596   0.760  0.0000  0.0000  0.0000
13405SI     SI113405   4.673   5.919   9.353  0.0000  0.0000  0.0000
13406SI     SI113406   2.739   1.443   0.683  0.0000  0.0000  0.0000
13407SI     SI113407   3.286   0.868   1.001  0.0000  0.0000  0.0000
13408SI     SI113408   4.027   8.820   1.027  0.0000  0.0000  0.0000
13409SI     SI113409   8.381   1.290   0.077  0.0000  0.0000  0.0000
13410SI     SI113410   3.251   7.308   0.732  0.0000  0.0000  0.0000
13411SI     SI113411   7.132   2.543   1.037  0.0000  0.0000  0.0000
13412SI     SI113412   1.691   6.840   0.869  0.0000  0.0000  0.0000
13413SI     SI113413   0.056   5.262   0.435  0.0000  0.0000  0.0000
13414SI     SI113414   6.659   7.662   0.830  0.0000  0.0000  0.0000
13415SI     SI113415   6.906   9.537   0.929  0.0000  0.0000  0.0000
13416SI     SI113416   1.280   7.128   9.413  0.0000  0.0000  0.0000
13417SI     SI113417   2.169   3.704   8.796  0.0000  0.0000  0.0000
13418SI     SI113418   3.577   4.542   0.675  0.0000  0.0000  0.0000
13419SI     SI113419   1.645   6.734   8.850  0.0000  0.0000  0.0000
13420SI     SI113420   2.199   7.015   0.760  0.0000  0.0000  0.0000
13421SI     SI113421   1.407   5.721   0.036  0.0000  0.0000  0.0000
13422SI     SI113422   5.071   6.312   8.915  0.0000  0.0000  0.0000
13423SI     SI113423   0.551   9.280   0.307  0.0000  0.0000  0.0000
13424SI     SI113424   7.642   9.158   0.223  0.0000  0.0000  0.0000
13425SI     SI113425   7.947   6.929   0.278  0.0000  0.0000  0.0000
13426SI     SI113426   2.571   0.247   0.899  0.0000  0.0000  0.0000
13427SI     SI113427   1.345   1.601   0.374  0.0000  0.0000  0.0000
13428SI     SI113428   1.557   6.901   0.447  0.0000  0.0000  0.0000
13429SI     SI113429   4.119   6.777   9.060  0.0000  0.0000  0.0000
13430SI     SI113430   5.529   8.695   9.002  0.0000  0.0000  0.0000
13431SI     SI113431   9.125   4.634   0.379  0.0000  0.0000  0.0000
13432SI     SI113432   5.870   9.411   8.520  0.0000  0.0000  0.0000
13433SI     SI113433   1.829   1.383   0.654  0.0000  0.0000  0.0000
13434SI     SI113434   2.301   4.996   8.567  0.0000  0.0000  0.0000
13435SI     SI113435   2.156   7.748   8.672  0.0000  0.0000  0.0000
13436SI     SI113436   5.183   0.722   9.531  0.0000  0.0000  0.0000
13437SI     SI113437   6.814   0.057   9.341  0.0000  0.0000  0.0000
13438SI     SI113438   5.438   5.946   0.025  0.0000  0.0000  0.0000
13439SI     SI113439   5.622   8.914   8.424  0.0000  0.0000  0.0000
13440SI     SI113440   4.558   7.072   8.853  0.0000  0.0000  0.0000
13441SI     SI113441   1.264   5.619   8.427  0.0000  0.0000  0.0000
13442SI     SI113442   6.618   3.534   9.366  0.0000  0.0000  0.0000
13443SI     SI113443   0.741   3.352   9.246  0.0000  0.0000  0.0000
13444SI     SI113444   6.469   1.026   8.959  0.0000  0.0000  0.0000
13445SI     SI113445   3.687   1.609   1.092  0.0000  0.0000  0.0000
13446SI     SI113446   3.399   0.337   0.873  0.0000  0.0000  0.0000
13447SI     SI113447   6.471   4.888   9.486  0.0000  0.0000  0.0000
13448SI     SI113448   4.224   6.831   8.788  0.0000  0.0000  0.0000
13449SI     SI113449   9.023   3.480   8.519  0.0000  0.0000  0.0000
13450SI     SI113450   2.422   5.181   0.430  0.0000  0.0000  0.0000
13451SI     SI113451   6.836   7.409   0.207  0.0000  0.0000  0.0000
13452SI     SI113452   9.033   1.794   0.795  0.0000  0.0000  0.0000
13453SI     SI113453   8.541   3.696   1.244  0.0000  0.0000  0.0000
13454SI     SI113454   4.859   1.830   0.237  0.0000  0.0000  0.0000
13455SI     SI113455   3.474   6.174   9.450  0.0000  0.0000  0.0000
13456SI     SI113456   4.826   4.736   0.244  0.0000  0.0000  0.0000
13457SI     SI113457   9.214   1.218   9.141  0.0000  0.0000  0.0000
13458SI     SI113458   7.826   9.040   1.006  0.0000  0.0000  0.0000
13459SI     SI113459   1.272   3.152   0.449  0.0000  0.0000  0.0000
13460SI     SI113460   9.054   3.337   8.991  0.0000  0.0000  0.0000
13461SI     SI113461   2.216   4.534   9.523  0.0000  0.0000  0.0000
13462SI     SI113462   3.514   1.924   9.156  0.0000  0.0000  0.0000
13463SI     SI113463   6.966   8.619   8.870  0.0000  0.0000  0.0000
13464SI     SI113464   0.159   3.684   0.764  0.0000  0.0000  0.0000
13465SI     SI113465   4.561   3.437   9.305  0.0000  0.0000  0.0000
13466SI     SI113466   2.548   6.673   0.490  0.0000  0.0000  0.0000
13467SI     SI113467   9.185   9.318   0.475  0.0000  0.0000  0.0000
13468SI     SI113468   0.116   6.768   8.388  0.0000  0.0000  0.0000
13469SI     SI113469   2.610   7.256   1.110  0.0000  0.0000  0.0000
13470SI     SI113470   1.387   2.310   0.880  0.0000  0.0000  0.0000
13471SI     SI113471   5.124   0.201   9.535  0.0000  0.0000  0.0000
13472SI     SI113472   6.588   1.272   9.528  0.0000  0.0000  0.0000
13473SI     SI113473   1.856   8.339   9.294  0.0000  0.0000  0.0000
13474SI     SI113474   3.845   1.462   8.695  0.0000  0.0000  0.0000
13475SI     SI113475   2.160   4.450   0.854  0.0000  0.0000  0.0000
13476SI     SI113476   3.569   7.873   8.568  0.0000  0.0000  0.0000
13477SI     SI113477   5.491   7.490   8.484  0.0000  0.0000  0.0000
13478SI     SI113478   1.624   3.763   8.445  0.0000  0.0000  0.0000
13479SI     SI113479   5.039   2.652   9.357  0.0000  0.0000  0.0000
13480SI     SI113480   1.768   6.272   8.184  0.0000  0.0000  0.0000
13481SI     SI113481   0.110   7.845   8.707  0.0000  0.0000  0.0000
13482SI     SI113482   0.583   0.006   9.538  0.0000  0.0000  0.0000
13483SI     SI113483   6.410   0.927   8.269  0.0000  0.0000  0.0000
13484SI     SI113484   4.304   2.332   1.003  0.0000  0.0000  0.0000
13485SI     SI113485   6.934   8.860   9.586  0.0000  0.0000  0.0000
13486SI     SI113486   0.549   3.531   9.061  0.0000  0.0000  0.0000
13487SI     SI113487   1.722   8.257   8.622  0.0000  0.0000  0.0000
13488SI     SI113488   3.280   3.056   8.453  0.0000  0.0000  0.0000
13489SI     SI113489   9.574   5.497   0.060  0.0000  0.0000  0.0000
13490SI     SI113490   2.074   7.852   9.389  0.0000  0.0000  0.0000
13491SI     SI113491   0.891   3.296   0.753  0.0000  0.0000  0.0000
13492SI     SI113492   9.369   7.230   0.838  0.0000  0.0000  0.0000
13493SI     SI113493   9.467   6.756   0.440  0.0000  0.0000  0.0000
13494SI     SI113494   6.565   8.847   0.217  0.0000  0.0000  0.0000
13495SI     SI113495   0.393   5.424   0.940  0.0000  0.0000  0.0000
13496SI     SI113496   0.238   6.487   8.363  0.0000  0.0000  0.0000
13497SI     SI113497   6.772   1.205   0.395  0.0000  0.0000  0.0000
13498SI     SI113498   5.722   3.712   9.301  0.0000  0.0000  0.0000
13499SI     SI113499   8.732   2.519   1.252  0.0000  0.0000  0.0000
13500SI     SI113500   6.429   6.457   9.548  0.0000  0.0000  0.0000
13501SI     SI113501   2.781   8.444   0.455  0.0000  0.0000  0.0000
13502SI     SI113502   3.281   8.407   8.979  0.0000  0.0000  0.0000
13503SI     SI113503   8.385   1.108   0.558  0.0000  0.0000  0.0000
13504SI     SI113504   0.407   3.380   1.286  0.0000  0.0000  0.0000
13505SI     SI113505   0.922   5.728   9.357  0.0000  0.0000  0.0000
13506SI     SI113506   9.259   5.141   0.003  0.0000  0.0000  0.0000
13507SI     SI113507   6.899   5.518   8.478  0.0000  0.0000  0.0000
13508SI     SI113508   8.556   4.661   0.346  0.0000  0.0000  0.0000
13509SI     SI113509   0.933   7.396   8.842  0.0000  0.0000  0.0000
13510SI     SI113510   9.227   8.108   0.242  0.0000  0.0000  0.0000
13511SI     SI113511   3.082   4.786   9.566  0.0000  0.0000  0.0000
13512SI     SI113512   9.215   9.465   1.143  0.0000  0.0000  0.0000
13513SI     SI113513   7.233   0.297   0.749  0.0000  0.0000  0.0000
13514SI     SI113514   0.678   1.596   0.807  0.0000  0.0000  0.0000
13515SI     SI113515   9.358   3.263   0.297  0.0000  0.0000  0.0000
13516SI     SI113516   7.063   9.090   0.395  0.0000  0.0000  0.0000
13517SI     SI113517   3.373   1.008   0.729  0.0000  0.0000  0.0000
13518SI     SI113518   2.002   5.531   1.120  0.0000  0.0000  0.0000
13519SI     SI113519   3.796   2.383   9.017  0.0000  0.0000  0.0000
13520SI     SI113520   7.040   2.257   0.268  0.0000  0.0000  0.0000
13521SI     SI113521   6.997   5.787   9.277  0.0000  0.0000  0.0000
13522SI     SI113522   8.250   7.213   0.658  0.0000  0.0000  0.0000
13523SI     SI113523   2.087   4.086   0.691  0.0000  0.0000  0.0000
13524SI     SI113524   2.115   6.554   0.756  0.0000  0.0000  0.0000
13525SI     SI113525   3.171   4.229   0.248  0.0000  0.0000  0.0000
13526SI     SI113526   5.292   3.458   8.388  0.0000  0.0000  0.0000
13527SI     SI113527   5.826   1.755   8.269  0.0000  0.0000  0.0000
13528SI     SI113528   8.896   8.561   8.997  0.0000  0.0000  0.0000
13529SI     SI113529   3.318   4.753   8.984  0.0000  0.0000  0.0000
13530SI     SI113530   3.906   4.979   8.830  0.0000  0.0000  0.0000
13531SI     SI113531   6.056   3.157   9.290  0.0000  0.0000  0.0000
13532SI     SI113532   7.808   1.092   9.330  0.0000  0.0000  0.0000
13533SI     SI113533   4.961   4.146   0.346  0.0000  0.0000  0.0000
13534SI     SI113534   0.876   4.014   0.898  0.0000  0.0000  0.0000
13535SI     SI113535   8.810   4.510   0.011  0.0000  0.0000  0.0000
13536SI     SI113536   5.671   2.412   0.179  0.0000  0.0000  0.0000
13537SI     SI113537   3.496   4.008   1.052  0.0000  0.0000  0.0000
13538SI     SI113538   8.193   1.636   8.207  0.0000  0.0000  0.0000
13539SI     SI113539   5.501   3.802   8.783  0.0000  0.0000  0.0000
13540SI     SI113540   9.372   5.279   8.573  0.0000  0.0000  0.0000
13541SI     SI113541   2.208   3.596   0.659  0.0000  0.0000  0.0000
13542SI     SI113542   7.508   7.614   9.054  0.0000  0.0000  0.0000
13543SI     SI113543   0.580   4.619   9.584  0.0000  0.0000  0.0000
13544SI     SI113544   7.783   5.629   8.889  0.0000  0.0000  0.0000
13545SI     SI113545   5.121   0.674   0.990  0.0000  0.0000  0.0000
13546SI     SI113546   2.592   4.050   9.529  0.0000  0.0000  0.0000
13547SI     SI113547   2.722   4.668   8.964  0.0000  0.0000  0.0000
13548SI     SI113548   2.416   1.461   8.459  0.0000  0.0000  0.0000
13549SI     SI113549   3.929   5.126   0.846  0.0000  0.0000  0.0000
13550SI     SI113550   6.361   9.413   8.491  0.0000  0.0000  0.0000
13551SI     SI113551   5.234   4.424   9.051  0.0000  0.0000  0.0000
13552SI     SI113552   4.840   1.969   9.088  0.0000  0.0000  0.0000
13553SI     SI113553   4.847   6.004   8.783  0.0000  0.0000  0.0000
13554SI     SI113554   8.651   1.118   8.720  0.0000  0.0000  0.0000
13555SI     SI113555   7.116   2.990   1.288  0.0000  0.0000  0.0000
13556SI     SI113556   2.047   7.347   9.467  0.0000  0.0000  0.0000
13557SI     SI113557   1.572   8.268   0.145  0.0000  0.0000  0.0000
13558SI     SI113558   7.204   9.529   0.218  0.0000  0.0000  0.0000
13559SI     SI113559   1.173   9.543   0.924  0.0000  0.0000  0.0000
13560SI     SI113560   1.449   7.640   0.943  0.0000  0.0000  0.0000
13561SI     SI113561   4.921   7.387   8.950  0.0000  0.0000  0.0000
13562SI     SI113562   8.365   8.126   1.009  0.0000  0.0000  0.0000
13563SI     SI113563   2.223   8.607   8.741  0.0000  0.0000  0.0000
13564SI     SI113564   3.783   6.604   8.840  0.0000  0.0000  0.0000
13565SI     SI113565   6.776   0.385   8.263  0.0000  0.0000  0.0000
13566SI     SI113566   1.019   6.642   0.923  0.0000  0.0000  0.0000
13567SI     SI113567   3.874   6.208   8.597  0.0000  0.0000  0.0000
13568SI     SI113568   5.189   7.763   0.759  0.0000  0.0000  0.0000
13569SI     SI113569   6.141   2.628   0.594  0.0000  0.0000  0.0000
13570SI     SI113570   2.871   5.389   0.265  0.0000  0.0000  0.0000
13571SI     SI113571   7.591   1.276   8.575  0.0000  0.0000  0.0000
13572SI     SI113572   1.864   6.677   0.679  0.0000  0.0000  0.0000
13573SI     SI113573   2.816   8.915   0.708  0.0000  0.0000  0.0000
13574SI     SI113574   7.276   0.657   0.404  0.0000  0.0000  0.0000
13575SI     SI113575   7.439   4.368   1.185  0.0000  0.0000  0.0000
13576SI     SI113576   4.231   6.028   9.004  0.0000  0.0000  0.0000
13577SI     SI113577   6.960   5.010   9.021  0.0000  0.0000  0.0000
13578SI     SI113578   7.880   4.590   0.208  0.0000  0.0000  0.0000
13579SI     SI113579   5.406   8.404   1.143  0.0000  0.0000  0.0000
13580SI     SI113580   0.477   2.416   9.420  0.0000  0.0000  0.0000
13581SI     SI113581   2.529   9.357   1.145  0.0000  0.0000  0.0000
13582SI     SI113582   5.361   7.971   8.856  0.0000  0.0000  0.0000
13583SI     SI113583   8.253   3.449   9.010  0.0000  0.0000  0.0000
13584SI     SI113584   3.591   5.993   1.132  0.0000  0.0000  0.0000
13585SI     SI113585   3.642   6.660   9.344  0.0000  0.0000  0.0000
13586SI     SI113586   4.451   7.006   8.370  0.0000  0.0000  0.0000
13587SI     SI113587   5.482   1.421   8.518  0.0000  0.0000  0.0000
13588SI     SI113588   2.905   7.827   9.251  0.0000  0.0000  0.0000
13589SI     SI113589   6.134   8.771   0.818  0.0000  0.0000  0.0000
13590SI     SI113590   2.334   1.328   0.505  0.0000  0.0000  0.0000
13591SI     SI113591   5.833   4.770   9.075  0.0000  0.0000  0.0000
13592SI     SI113592   2.554   6.907   8.471  0.0000  0.0000  0.0000
13593SI     SI113593   0.036   3.022   0.005  0.0000  0.0000  0.0000
13594SI     SI113594   7.303   9.511   9.535  0.0000  0.0000  0.0000
13595SI     SI113595   1.731   3.751   9.471  0.0000  0.0000  0.0000
13596SI     SI113596   6.076   3.897   0.124  0.0000  0.0000  0.0000
13597SI     SI113597   5.501   3.014   1.222  0.0000  0.0000  0.0000
13598SI     SI113598   5.920   5.773   8.514  0.0000  0.0000  0.0000
13599SI     SI113599   2.775   5.775   8.608  0.0000  0.0000  0.0000
13600SI     SI113600   0.912   1.548   0.214  0.0000  0.0000  0.0000
13601SI     SI113601   1.203   8.025   0.785  0.0000  0.0000  0.0000
13602SI     SI113602   7.536   2.667   8.676  0.0000  0.0000  0.0000
13603SI     SI113603   3.047   1.288   9.474  0.0000  0.0000  0.0000
13604SI     SI113604   7.368   2.544   0.821  0.0000  0.0000  0.0000
13605SI     SI113605   0.436   1.692   9.397  0.0000  0.0000  0.0000
13606SI     SI113606   6.993   2.094   8.743  0.0000  0.0000  0.0000
13607SI     SI113607   4.774   9.025   0.866  0.0000  0.0000  0.0000
13608SI     SI113608   3.009   4.421   8.548  0.0000  0.0000  0.0000
13609SI     SI113609   2.070   1.292   8.707  0.0000  0.0000  0.0000
13610SI     SI113610   8.216   3.688   8.825  0.0000  0.0000  0.0000
13611SI     SI113611   1.175   0.865   1.042  0.0000  0.0000  0.0000
13612SI     SI113612   9.542   9.364   8.748  0.0000  0.0000  0.0000
13613SI     SI113613   2.262   0.016   9.039  0.0000  0.0000  0.0000
13614SI     SI113614   9.391   4.046   8.935  0.0000  0.0000  0.0000
13615SI     SI113615   7.394   5.381   0.472  0.0000  0.0000  0.0000
13616SI     SI113616   2.154   4.297   8.502  0.0000  0.0000  0.0000
13617SI     SI113617   9.534   8.818   1.269  0.0000  0.0000  0.0000
13618SI     SI113618   7.894   0.663   9.573  0.0000  0.0000  0.0000
13619SI     SI113619   6.437   2.409   0.246  0.0000  0.0000  0.0000
13620SI     SI113620   8.124   5.284   9.129  0.0000  0.0000  0.0000
13621SI     SI113621   9.101   1.271   0.013  0.0000  0.0000  0.0000
13622SI     SI113622   7.917   0.750   1.047  0.0000  0.0000  0.0000
13623SI     SI113623   1.099   9.081   8.991  0.0000  0.0000  0.0000
13624SI     SI113624   0.144   9.031   1.259  0.0000  0.0000  0.0000
13625SI     SI113625   1.308   0.490   1.254  0.0000  0.0000  0.0000
13626SI     SI113626   4.477   9.550   8.843  0.0000  0.0000  0.0000
13627SI     SI113627   8.851   3.816   9.427  0.0000  0.0000  0.0000
13628SI     SI113628   5.436   0.557   0.357  0.0000  0.0000  0.0000
13629SI     SI113629   4.736   4.778   1.014  0.0000  0.0000  0.0000
13630SI     SI113630   4.271   7.348   0.111  0.0000  0.0000  0.0000
13631SI     SI113631   5.299   1.714   8.195  0.0000  0.0000  0.0000
13632SI     SI113632   0.452   1.949   8.957  0.0000  0.0000  0.0000
13633SI     SI113633   0.710   4.633   9.110  0.0000  0.0000  0.0000
13634SI     SI113634   5.440   2.526   8.351  0.0000  0.0000  0.0000
13635SI     SI113635   5.428   7.935   0.641  0.0000  0.0000  0.0000
13636SI     SI113636   6.258   7.667   0.655  0.0000  0.0000  0.0000
13637SI     SI113637   1.283   7.750   0.713  0.0000  0.0000  0.0000
13638SI     SI113638   3.315   9.034   0.890  0.0000  0.0000  0.0000
13639SI     SI113639   0.300   4.466   0.578  0.0000  0.0000  0.0000
13640SI     SI113640   5.651   1.572   8.981  0.0000  0.0000  0.0000
13641SI     SI113641   0.254   7.003   0.694  0.0000  0.0000  0.0000
13642SI     SI113642   1.497   3.476   9.189  0.0000  0.0000  0.0000
13643SI     SI113643   7.670   4.693   9.250  0.0000  0.0000  0.0000
13644SI     SI113644   1.088   9.492   9.597  0.0000  0.0000  0.0000
13645SI     SI113645   5.604   1.902   0.149  0.0000  0.0000  0.0000
13646SI     SI113646   3.966   1.203   8.828  0.0000  0.0000  0.0000
13647SI     SI113647   7.130   7.640   8.699  0.0000  0.0000  0.0000
13648SI     SI113648   3.178   2.229   9.068  0.0000  0.0000  0.0000
13649SI     SI113649   4.730   3.438   8.407  0.0000  0.0000  0.0000
13650SI     SI113650   8.288   6.717   0.728  0.0000  0.0000  0.0000
13651SI     SI113651   0.179   9.103   0.964  0.0000  0.0000  0.0000
13652SI     SI113652   4.638   1.538   9.147  0.0000  0.0000  0.0000
13653SI     SI113653   2.820   7.944   0.386  0.0000  0.0000  0.0000
13654SI     SI113654   1.522   7.272   9.306  0.0000  0.0000  0.0000
13655SI     SI113655   4.318   7.979   0.360  0.0000  0.0000  0.0000
13656SI     SI113656   1.468   8.726   1.227  0.0000  0.0000  0.0000
13657SI     SI113657   0.249   5.507   0.434  0.0000  0.0000  0.0000
13658SI     SI113658   5.151   2.448   8.989  0.0000  0.0000  0.0000
13659SI     SI113659   2.572   3.089   0.063  0.0000  0.0000  0.0000
13660SI     SI113660   0.789   9.484   0.611  0.0000  0.0000  0.0000
13661SI     SI113661   3.255   4.274   8.638  0.0000  0.0000  0.0000
13662SI     SI113662   0.890   8.216   0.268  0.0000  0.0000  0.0000
13663SI     SI113663   6.611   5.311   0.496  0.0000  0.0000  0.0000
13664SI     SI113664   6.262   8.220   0.680  0.0000  0.0000  0.0000
13665SI     SI113665   2.570   5.180   9.096  0.0000  0.0000  0.0000
13666SI     SI113666   2.170   3.023   9.286  0.0000  0.0000  0.0000
13667SI     SI113667   1.553   8.632   9.193  0.0000  0.0000  0.0000
13668SI     SI113668   8.182   7.116   0.361  0.0000  0.0000  0.0000
13669SI     SI113669   1.000   3.156   8.712  0.0000  0.0000  0.0000
13670SI     SI113670   0.987   5.446   8.859  0.0000  0.0000  0.0000
13671SI     SI113671   5.653   2.019   0.420  0.0000  0.0000  0.0000
13672SI     SI113672   7.570   3.717   9.300  0.0000  0.0000  0.0000
13673SI     SI113673   5.387   8.263   9.443  0.0000  0.0000  0.0000
13674SI     SI113674   2.869   0.346   1.146  0.0000  0.0000  0.0000
13675SI     SI113675   1.100   0.518   9.441  0.0000  0.0000  0.0000
13676SI     SI113676   8.248   3.202   0.711  0.0000  0.0000  0.0000
13677SI     SI113677   6.963   8.104   8.957  0.0000  0.0000  0.0000
13678SI     SI113678   8.461   3.759   8.637  0.0000  0.0000  0.0000
13679SI     SI113679   3.593   6.809   0.545  0.0000  0.0000  0.0000
13680SI     SI113680   7.275   5.514   9.525  0.0000  0.0000  0.0000
13681SI     SI113681   3.176   5.783   9.288  0.0000  0.0000  0.0000
13682SI     SI113682   3.089   0.063   0.718  0.0000  0.0000  0.0000
13683SI     SI113683   1.153   6.745   8.424  0.0000  0.0000  0.0000
13684SI     SI113684   2.905   4.661   8.709  0.0000  0.0000  0.0000
13685SI     SI113685   5.752   7.417   1.110  0.0000  0.0000  0.0000
13686SI     SI113686   8.511   6.333   0.603  0.0000  0.0000  0.0000
13687SI     SI113687   5.581   4.815   0.053  0.0000  0.0000  0.0000
13688SI     SI113688   5.151   2.552   8.409  0.0000  0.0000  0.0000
13689SI     SI113689   5.351   8.672   1.005  0.0000  0.0000  0.0000
13690SI     SI113690   0.500   6.324   9.419  0.0000  0.0000  0.0000
13691SI     SI113691   1.745   3.617   8.693  0.0000  0.0000  0.0000
13692SI     SI113692   3.170   2.579   8.695  0.0000  0.0000  0.0000
13693SI     SI113693   3.359   8.046   8.450  0.0000  0.0000  0.0000
13694SI     SI113694   8.822   9.460   9.094  0.0000  0.0000  0.0000
13695SI     SI113695   3.092   2.092   0.822  0.0000  0.0000  0.0000
13696SI     SI113696   4.950   3.988   1.152  0.0000  0.0000  0.0000
13697SI     SI113697   0.092   1.221   8.603  0.0000  0.0000  0.0000
13698SI     SI113698   5.535   0.984   0.632  0.0000  0.0000  0.0000
13699SI     SI113699   6.537   2.297   8.787  0.0000  0.0000  0.0000
13700SI     SI113700   0.483   0.234   9.360  0.0000  0.0000  0.0000
13701SI     SI113701   5.945   8.967   0.677  0.0000  0.0000  0.0000
13702SI     SI113702   1.429   0.991   9.051  0.0000  0.0000  0.0000
13703SI     SI113703   2.165   6.871   1.427  0.0000  0.0000  0.0000
13704SI     SI113704   7.852   5.446   9.134  0.0000  0.0000  0.0000
13705SI     SI113705   0.992   0.652   8.620  0.0000  0.0000  0.0000
13706SI     SI113706   8.225   8.017   0.425  0.0000  0.0000  0.0000
13707SI     SI113707   0.486   4.084   0.074  0.0000  0.0000  0.0000
13708SI     SI113708   1.043   5.821   0.645  0.0000  0.0000  0.0000
13709SI     SI113709   4.496   4.441   0.436  0.0000  0.0000  0.0000
13710SI     SI113710   2.075   6.511   8.756  0.0000  0.0000  0.0000
13711SI     SI113711   9.297   0.738   8.498  0.0000  0.0000  0.0000
13712SI     SI113712   3.219   8.671   1.187  0.0000  0.0000  0.0000
13713SI     SI113713   1.249   6.468   0.869  0.0000  0.0000  0.0000
13714SI     SI113714   6.783   4.983   1.071  0.0000  0.0000  0.0000
13715SI     SI113715   3.232   0.146   0.017  0.0000  0.0000  0.0000
13716SI     SI113716   6.046   2.686   9.371  0.0000  0.0000  0.0000
13717SI     SI113717   0.064   7.608   8.906  0.0000  0.0000  0.0000
13718SI     SI113718   6.283   7.458   8.542  0.0000  0.0000  0.0000
13719SI     SI113719   6.319   3.145   0.758  0.0000  0.0000  0.0000
13720SI     SI113720   8.246   4.901   0.927  0.0000  0.0000  0.0000
13721SI     SI113721   8.472   6.236   0.880  0.0000  0.0000  0.0000
13722SI     SI113722   3.174   9.270   0.221  0.0000  0.0000  0.0000
13723SI     SI113723   4.580   6.406   9.224  0.0000  0.0000  0.0000
13724SI     SI113724   7.124   0.702   8.663  0.0000  0.0000  0.0000
13725SI     SI113725   6.146   6.075   0.003  0.0000  0.0000  0.0000
13726SI     SI113726   8.618   5.372   9.521  0.0000  0.0000  0.0000
13727SI     SI113727   5.805   8.556   1.088  0.0000  0.0000  0.0000
13728SI     SI113728   9.504   2.721   0.369  0.0000  0.0000  0.0000
13729SI     SI113729   3.324   8.194   9.189  0.0000  0.0000  0.0000
13730SI     SI113730   8.339   4.759   0.150  0.0000  0.0000  0.0000
13731SI     SI113731   6.857   4.729   0.891  0.0000  0.0000  0.0000
13732SI     SI113732   5.537   3.289   9.392  0.0000  0.0000  0.0000
13733SI     SI113733   7.137   9.228   8.976  0.0000  0.0000  0.0000
13734SI     SI113734   2.683   2.993   0.999  0.0000  0.0000  0.0000
13735SI     SI113735   9.479   6.961   0.964  0.0000  0.0000  0.0000
13736SI     SI113736   9.260   3.677   8.578  0.0000  0.0000  0.0000
13737SI     SI113737   3.806   6.386   0.569  0.0000  0.0000  0.0000
13738SI     SI113738   8.228   5.099   8.455  0.0000  0.0000  0.0000
13739SI     SI113739   1.360   6.609   9.522  0.0000  0.0000  0.0000
13740SI     SI113740   6.249   8.711   8.870  0.0000  0.0000  0.0000
13741SI     SI113741   0.760   5.789   0.611  0.0000  0.0000  0.0000
13742SI     SI113742   1.015   5.004   0.425  0.0000  0.0000  0.0000
13743SI     SI113743   9.511   7.798   0.213  0.0000  0.0000  0.0000
13744SI     SI113744   7.590   3.678   9.596  0.0000  0.0000  0.0000
13745SI     SI113745   1.666   7.463   0.853  0.0000  0.0000  0.0000
13746SI     SI113746   5.950   9.389   9.308  0.0000  0.0000  0.0000
13747SI     SI113747   1.605   4.670   0.699  0.0000  0.0000  0.0000
13748SI     SI113748   1.897   1.702   1.040  0.0000  0.0000  0.0000
13749SI     SI113749   7.095   0.024   0.731  0.0000  0.0000  0.0000
13750SI     SI113750   8.842   1.486   9.232  0.0000  0.0000  0.0000
13751SI     SI113751   4.282   3.118   0.647  0.0000  0.0000  0.0000
13752SI     SI113752   1.878   9.130   8.529  0.0000  0.0000  0.0000
13753SI     SI113753   2.517   8.610   8.735  0.0000  0.0000  0.0000
13754SI     SI113754   2.597   1.520   9.097  0.0000  0.0000  0.0000
13755SI     SI113755   0.296   5.885   0.664  0.0000  0.0000  0.0000
13756SI     SI113756   5.505   8.221   8.756  0.0000  0.0000  0.0000
13757SI     SI113757   4.623   1.712   9.391  0.0000  0.0000  0.0000
13758SI     SI113758   8.200   5.223   9.594  0.0000  0.0000  0.0000
13759SI     SI113759   7.740   7.149   8.768  0.0000  0.0000  0.0000
13760SI     SI113760   5.073   6.619   8.506  0.0000  0.0000  0.0000
13761SI     SI113761   2.616   2.892   0.536  0.0000  0.0000  0.0000
13762SI     SI113762   7.337   6.787   0.418  0.0000  0.0000  0.0000
13763SI     SI113763   4.254   3.392   8.636  0.0000  0.0000  0.0000
13764SI     SI113764   9.277   6.762   8.966  0.0000  0.0000  0.0000
13765SI     SI113765   3.157   0.291   8.919  0.0000  0.0000  0.0000
13766SI     SI113766   7.378   6.647   0.682  0.0000  0.0000  0.0000
13767SI     SI113767   1.684   4.352   1.036  0.0000  0.0000  0.0000
13768SI     SI113768   3.176   3.288   1.145  0.0000  0.0000  0.0000
13769SI     SI113769   3.453   7.157   8.793  0.0000  0.0000  0.0000
13770SI     SI113770   9.437   5.425   0.344  0.0000  0.0000  0.0000
13771SI     SI113771   3.460   3.285   8.828  0.0000  0.0000  0.0000
13772SI     SI113772   7.696   0.360   0.629  0.0000  0.0000  0.0000
13773SI     SI113773   4.840   2.469   9.032  0.0000  0.0000  0.0000
13774SI     SI113774   2.572   4.317   8.718  0.0000  0.0000  0.0000
13775SI     SI113775   7.639   7.269   1.078  0.0000  0.0000  0.0000
13776SI     SI113776   5.586   1.883   0.689  0.0000  0.0000  0.0000
13777SI     SI113777   2.171   0.938   9.444  0.0000  0.0000  0.0000
13778SI     SI113778   7.700   4.801   8.832  0.0000  0.0000  0.0000
13779SI     SI113779   8.159   3.581   0.055  0.0000  0.0000  0.0000
13780SI     SI113780   5.512   2.782   0.523  0.0000  0.0000  0.0000
13781SI     SI113781   7.922   2.146   9.602  0.0000  0.0000  0.0000
13782SI     SI113782   7.080   3.388   0.498  0.0000  0.0000  0.0000
13783SI     SI113783   0.486   4.051   8.846  0.0000  0.0000  0.0000
13784SI     SI113784   1.385   1.244   8.620  0.0000  0.0000  0.0000
13785SI     SI113785   8.173   0.795   8.854  0.0000  0.0000  0.0000
13786SI     SI113786   0.737   7.669   8.259  0.0000  0.0000  0.0000
13787SI     SI113787   7.136   9.265   9.466  0.0000  0.0000  0.0000
13788SI     SI113788   5.278   1.836   8.788  0.0000  0.0000  0.0000
13789SI     SI113789   0.499   1.082   8.906  0.0000  0.0000  0.0000
13790SI     SI113790   3.408   5.637   0.810  0.0000  0.0000  0.0000
13791SI     SI113791   3.900   3.743   8.764  0.0000  0.0000  0.0000
13792SI     SI113792   9.558   2.333   9.407  0.0000  0.0000  0.0000
13793SI     SI113793   9.314   5.485   9.201  0.0000  0.0000  0.0000
13794SI     SI113794   2.971   6.948   8.688  0.0000  0.0000  0.0000
13795SI     SI113795   3.247   6.601   0.679  0.0000  0.0000  0.0000
13796SI     SI113796   2.277   0.044   9.590  0.0000  0.0000  0.0000
13797SI     SI113797   0.292   5.182   8.809  0.0000  0.0000  0.0000
13798SI     SI113798   7.184   8.673   8.185  0.0000  0.0000  0.0000
13799SI     SI113799   6.497   2.883   0.471  0.0000  0.0000  0.0000
13800SI     SI113800   2.622   4.676   0.708  0.0000  0.0000  0.0000
13801SI     SI113801   6.469   8.347   9.168  0.0000  0.0000  0.0000
13802SI     SI113802   7.933   6.469   9.090  0.0000  0.0000  0.0000
13803SI     SI113803   8.054   3.118   0.250  0.0000  0.0000  0.0000
13804SI     SI113804   0.659   4.245   0.262  0.0000  0.0000  0.0000
13805SI     SI113805   5.065   3.866   0.413  0.0000  0.0000  0.0000
13806SI     SI113806   9.288   0.580   8.756  0.0000  0.0000  0.0000
13807SI     SI113807   6.213   8.301   1.107  0.0000  0.0000  0.0000
13808SI     SI113808   5.361   8.037   8.319  0.0000  0.0000  0.0000
13809SI     SI113809   0.385   3.365   0.976  0.0000  0.0000  0.0000
13810SI     SI113810   6.229   3.782   0.553  0.0000  0.0000  0.0000
13811SI     SI113811   3.799   3.820   9.247  0.0000  0.0000  0.0000
13812SI     SI113812   9.361   0.004   8.825  0.0000  0.0000  0.0000
13813SI     SI113813   6.740   2.492   9.529  0.0000  0.0000  0.0000
13814SI     SI113814   8.559   1.040   0.952  0.0000  0.0000  0.0000
13815SI     SI113815   4.314   1.092   1.102  0.0000  0.0000  0.0000
13816SI     SI113816   9.432   9.275   0.311  0.0000  0.0000  0.0000
13817SI     SI113817   9.151   7.499   1.282  0.0000  0.0000  0.0000
13818SI     SI113818   6.378   1.451   0.316  0.0000  0.0000  0.0000
13819SI     SI113819   6.775   0.892   0.384  0.0000  0.0000  0.0000
13820SI     SI113820   3.520   2.169   8.709  0.0000  0.0000  0.0000
13821SI     SI113821   4.400   5.286   9.210  0.0000  0.0000  0.0000
13822SI     SI113822   3.607   1.473   0.392  0.0000  0.0000  0.0000
13823SI     SI113823   5.855   8.971   9.094  0.0000  0.0000  0.0000
13824SI     SI113824   2.363   2.638   9.502  0.0000  0.0000  0.0000
13825SI     SI113825   4.447   1.886   0.332  0.0000  0.0000  0.0000
13826SI     SI113826   9.325   5.603   0.829  0.0000  0.0000  0.0000
13827SI     SI113827   5.137   7.110   0.838  0.0000  0.0000  0.0000
13828SI     SI113828   7.566   9.356   0.441  0.0000  0.0000  0.0000
13829SI     SI113829   8.637   1.717   0.113  0.0000  0.0000  0.0000
13830SI     SI113830   1.051   8.762   0.967  0.0000  0.0000  0.0000
13831SI     SI113831   8.994   0.252   8.856  0.0000  0.0000  0.0000
13832SI     SI113832   5.367   2.439   9.176  0.0000  0.0000  0.0000
13833SI     SI113833   6.244   4.992   8.306  0.0000  0.0000  0.0000
13834SI     SI113834   3.916   0.724   1.183  0.0000  0.0000  0.0000
13835SI     SI113835   9.213   6.822   0.595  0.0000  0.0000  0.0000
13836SI     SI113836   8.019   6.111   0.696  0.0000  0.0000  0.0000
13837SI     SI113837   2.375   8.990   0.579  0.0000  0.0000  0.0000
13838SI     SI113838   7.828   4.441   9.227  0.0000  0.0000  0.0000
13839SI     SI113839   1.067   8.440   1.260  0.0000  0.0000  0.0000
13840SI     SI113840   7.488   4.173   0.953  0.0000  0.0000  0.0000
13841SI     SI113841   9.061   0.903   8.544  0.0000  0.0000  0.0000
13842SI     SI113842   2.764   2.579   0.235  0.0000  0.0000  0.0000
13843SI     SI113843   8.709   9.199   9.120  0.0000  0.0000  0.0000
13844SI     SI113844   8.987   4.998   9.570  0.0000  0.0000  0.0000
13845SI     SI113845   1.601   5.519   0.598  0.0000  0.0000  0.0000
13846SI     SI113846   5.134   6.188   0.358  0.0000  0.0000  0.0000
13847SI     SI113847   5.504   8.011   9.111  0.0000  0.0000  0.0000
13848SI     SI113848   0.045   5.111   0.703  0.0000  0.0000  0.0000
13849SI     SI113849   7.801   4.556   0.517  0.0000  0.0000  0.0000
13850SI     SI113850   6.496   4.826   0.689  0.0000  0.0000  0.0000
13851SI     SI113851   8.483   9.068   1.383  0.0000  0.0000  0.0000
13852SI     SI113852   8.297   4.640   8.412  0.0000  0.0000  0.0000
13853SI     SI113853   2.500   0.570   9.214  0.0000  0.0000  0.0000
13854SI     SI113854   0.169   1.483   8.929  0.0000  0.0000  0.0000
13855SI     SI113855   2.306   8.114   8.911  0.0000  0.0000  0.0000
13856SI     SI113856   5.238   3.279   0.115  0.0000  0.0000  0.0000
13857SI     SI113857   2.111   3.940   9.292  0.0000  0.0000  0.0000
13858SI     SI113858   0.190   7.839   0.109  0.0000  0.0000  0.0000
13859SI     SI113859   4.614   2.007   9.309  0.0000  0.0000  0.0000
13860SI     SI113860   0.365   2.615   0.260  0.0000  0.0000  0.0000
13861SI     SI113861   7.945   0.221   0.170  0.0000  0.0000  0.0000
13862SI     SI113862   2.131   3.186   9.018  0.0000  0.0000  0.0000
13863SI     SI113863   5.604   3.059   0.650  0.0000  0.0000  0.0000
13864SI     SI113864   4.343   5.568   1.125  0.0000  0.0000  0.0000
13865SI     SI113865   6.303   6.948   9.314  0.0000  0.0000  0.0000
13866SI     SI113866   4.315   5.730   9.049  0.0000  0.0000  0.0000
13867SI     SI113867   4.126   0.735   0.143  0.0000  0.0000  0.0000
13868SI     SI113868   0.808   7.263   8.331  0.0000  0.0000  0.0000
13869SI     SI113869   0.110   1.059   0.943  0.0000  0.0000  0.0000
13870SI     SI113870   0.113   1.347   0.863  0.0000  0.0000  0.0000
13871SI     SI113871   0.181   3.970   8.626  0.0000  0.0000  0.0000
13872SI     SI113872   6.701   7.153   0.178  0.0000  0.0000  0.0000
13873SI     SI113873   3.893   7.837   0.864  0.0000  0.0000  0.0000
13874SI     SI113874   1.720   6.426   0.661  0.0000  0.0000  0.0000
13875SI     SI113875   5.170   3.294   1.425  0.0000  0.0000  0.0000
13876SI     SI113876   5.065   7.641   8.444  0.0000  0.0000  0.0000
13877SI     SI113877   0.589   9.229   1.138  0.0000  0.0000  0.0000
13878SI     SI113878   2.168   0.715   0.678  0.0000  0.0000  0.0000
13879SI     SI113879   3.614   2.922   1.143  0.0000  0.0000  0.0000
13880SI     SI113880   3.141   7.726   9.065  0.0000  0.0000  0.0000
13881SI     SI113881   4.740   4.643   9.319  0.0000  0.0000  0.0000
13882SI     SI113882   8.563   6.136   8.591  0.0000  0.0000  0.0000
13883SI     SI113883   9.415   7.873   0.939  0.0000  0.0000  0.0000
13884SI     SI113884   3.606   1.830   0.878  0.0000  0.0000  0.0000
13885SI     SI113885   3.630   5.778   0.164  0.0000  0.0000  0.0000
13886SI     SI113886   2.134   2.118   8.988  0.0000  0.0000  0.0000
13887SI     SI113887   4.556   3.792   0.272  0.0000  0.0000  0.0000
13888SI     SI113888   5.539   1.048   9.193  0.0000  0.0000  0.0000
13889SI     SI113889   5.555   6.813   8.810  0.0000  0.0000  0.0000
13890SI     SI113890   1.823   6.685   1.108  0.0000  0.0000  0.0000
13891SI     SI113891   8.681   8.382   0.647  0.0000  0.0000  0.0000
13892SI     SI113892   3.067   0.720   0.641  0.0000  0.0000  0.0000
13893SI     SI113893   8.579   4.154   9.393  0.0000  0.0000  0.0000
13894SI     SI113894   9.522   0.592   9.206  0.0000  0.0000  0.0000
13895SI     SI113895   0.570   7.466   8.403  0.0000  0.0000  0.0000
13896SI     SI113896   7.942   9.151   0.214  0.0000  0.0000  0.0000
13897SI     SI113897   2.163   8.520   8.447  0.0000  0.0000  0.0000
13898SI     SI113898   7.893   2.853   0.634  0.0000  0.0000  0.0000
13899SI     SI113899   4.159   7.928   0.870  0.0000  0.0000  0.0000
13900SI     SI113900   5.368   4.120   0.535  0.0000  0.0000  0.0000
13901SI     SI113901   3.046   0.273   0.504  0.0000  0.0000  0.0000
13902SI     SI113902   9.510   3.535   8.712  0.0000  0.0000  0.0000
13903SI     SI113903   6.174   1.559   9.270  0.0000  0.0000  0.0000
13904SI     SI113904   1.650   7.465   8.806  0.0000  0.0000  0.0000
13905SI     SI113905   2.717   6.175   0.797  0.0000  0.0000  0.0000
13906SI     SI113906   0.142   6.717   0.064  0.0000  0.0000  0.0000
13907SI     SI113907   4.894   2.054   0.681  0.0000  0.0000  0.0000
13908SI     SI113908   5.853   6.837   8.858  0.0000  0.0000  0.0000
13909SI     SI113909   2.370   0.323   8.688  0.0000  0.0000  0.0000
13910SI     SI113910   8.304   6.018   0.717  0.0000  0.0000  0.0000
13911SI     SI113911   7.425   2.779   0.623  0.0000  0.0000  0.0000
13912SI     SI113912   6.778   2.744   8.743  0.0000  0.0000  0.0000
13913SI     SI113913   8.496   7.751   9.096  0.0000  0.0000  0.0000
13914SI     SI113914   3.740   0.680   8.908  0.0000  0.0000  0.0000
13915SI     SI113915   8.242   8.407   9.012  0.0000  0.0000  0.0000
13916SI     SI113916   4.706   1.153   8.637  0.0000  0.0000  0.0000
13917SI     SI113917   6.181   7.819   9.505  0.0000  0.0000  0.0000
13918SI     SI113918   5.171   6.217   1.136  0.0000  0.0000  0.0000
13919SI     SI113919   5.745   4.733   0.589  0.0000  0.0000  0.0000
13920SI     SI113920   8.281   6.185   9.309  0.0000  0.0000  0.0000
13921SI     SI113921   4.212   4.715   9.498  0.0000  0.0000  0.0000
13922SI     SI113922   4.761   5.987   0.649  0.0000  0.0000  0.0000
13923SI     SI113923   1.640   7.206   0.465  0.0000  0.0000  0.0000
13924SI     SI113924   8.544   4.313   8.677  0.0000  0.0000  0.0000
13925SI     SI113925   8.231   4.334   9.100  0.0000  0.0000  0.0000
13926SI     SI113926   8.380   1.734   9.409  0.0000  0.0000  0.0000
13927SI     SI113927   6.114   4.816   8.983  0.0000  0.0000  0.0000
13928SI     SI113928   3.117   7.437   9.187  0.0000  0.0000  0.0000
13929SI     SI113929   2.459   5.522   1.264  0.0000  0.0000  0.0000
13930SI     SI113930   1.495   1.251   1.111  0.0000  0.0000  0.0000
13931SI     SI113931   3.310   1.253   9.323  0.0000  0.0000  0.0000
13932SI     SI113932   6.283   3.115   9.466  0.0000  0.0000  0.0000
13933SI     SI113933   1.828   8.559   9.502  0.0000  0.0000  0.0000
13934SI     SI113934   1.826   9.060   8.231  0.0000  0.0000  0.0000
13935SI     SI113935   9.215   6.277   1.059  0.0000  0.0000  0.0000
13936SI     SI113936   1.798   0.782   0.442  0.0000  0.0000  0.0000
13937SI     SI113937   5.771   7.640   9.315  0.0000  0.0000  0.0000
13938SI     SI113938   4.821   8.042   0.436  0.0000  0.0000  0.0000
13939SI     SI113939   2.509   3.329   0.771  0.0000  0.0000  0.0000
13940SI     SI113940   5.335   8.144   0.989  0.0000  0.0000  0.0000
13941SI     SI113941   5.311   9.243   9.293  0.0000  0.0000  0.0000
13942SI     SI113942   4.109   7.909   9.006  0.0000  0.0000  0.0000
13943SI     SI113943   0.431   1.459   8.747  0.0000  0.0000  0.0000
13944SI     SI113944   7.351   1.647   0.895  0.0000  0.0000  0.0000
13945SI     SI113945   9.125   0.123   8.203  0.0000  0.0000  0.0000
13946SI     SI113946   8.229   4.794   0.669  0.0000  0.0000  0.0000
13947SI     SI113947   6.532   1.976   9.049  0.0000  0.0000  0.0000
13948SI     SI113948   9.582   3.020   0.726  0.0000  0.0000  0.0000
13949SI     SI113949   3.529   8.405   0.883  0.0000  0.0000  0.0000
13950SI     SI113950   6.761   4.961   0.237  0.0000  0.0000  0.0000
13951SI     SI113951   3.894   3.481   0.948  0.0000  0.0000  0.0000
13952SI     SI113952   2.615   4.047   0.941  0.0000  0.0000  0.0000
13953SI     SI113953   6.866   2.822   9.199  0.0000  0.0000  0.0000
13954SI     SI113954   8.596   4.560   9.132  0.0000  0.0000  0.0000
13955SI     SI113955   4.183   2.492   0.392  0.0000  0.0000  0.0000
13956SI     SI113956   1.306   4.974   0.323  0.0000  0.0000  0.0000
13957SI     SI113957   7.491   5.650   0.089  0.0000  0.0000  0.0000
13958SI     SI113958   1.037   4.467   8.331  0.0000  0.0000  0.0000
13959SI     SI113959   9.589   2.110   0.557  0.0000  0.0000  0.0000
13960SI     SI113960   3.606   5.571   9.020  0.0000  0.0000  0.0000
13961SI     SI113961   2.344   5.809   0.881  0.0000  0.0000  0.0000
13962SI     SI113962   5.967   1.330   9.219  0.0000  0.0000  0.0000
13963SI     SI113963   8.182   5.907   8.607  0.0000  0.0000  0.0000
13964SI     SI113964   5.557   4.770   8.654  0.0000  0.0000  0.0000
13965SI     SI113965   1.743   2.198   0.352  0.0000  0.0000  0.0000
13966SI     SI113966   9.167   2.384   8.546  0.0000  0.0000  0.0000
13967SI     SI113967   5.541   7.712   8.841  0.0000  0.0000  0.0000
13968SI     SI113968   5.469   8.997   0.661  0.0000  0.0000  0.0000
13969SI     SI113969   0.943   1.988   0.194  0.0000  0.0000  0.0000
13970SI     SI113970   0.236   6.555   0.971  0.0000  0.0000  0.0000
13971SI     SI113971   3.902   0.860   0.299  0.0000  0.0000  0.0000
13972SI     SI113972   4.789   6.748   9.199  0.0000  0.0000  0.0000
13973SI     SI113973   2.997   3.554   9.205  0.0000  0.0000  0.0000
13974SI     SI113974   0.003   6.434   0.078  0.0000  0.0000  0.0000
13975SI     SI113975   8.312   7.521   9.001  0.0000  0.0000  0.0000
13976SI     SI113976   5.711   7.579   0.692  0.0000  0.0000  0.0000
13977SI     SI113977   0.925   0.816   0.848  0.0000  0.0000  0.0000
13978SI     SI113978   2.330   1.875   9.042  0.0000  0.0000  0.0000
13979SI     SI113979   8.799   9.477   8.787  0.0000  0.0000  0.0000
13980SI     SI113980   3.178   2.805   0.945  0.0000  0.0000  0.0000
13981SI     SI113981   5.344   6.785   8.447  0.0000  0.0000  0.0000
13982SI     SI113982   7.320   6.406   8.489  0.0000  0.0000  0.0000
13983SI     SI113983   0.140   0.191   0.056  0.0000  0.0000  0.0000
13984SI     SI113984   7.300   8.528   9.504  0.0000  0.0000  0.0000
13985SI     SI113985   3.859   6.683   0.470  0.0000  0.0000  0.0000
13986SI     SI113986   1.229   9.010   8.375  0.0000  0.0000  0.0000
13987SI     SI113987   5.835   8.390   0.822  0.0000  0.0000  0.0000
13988SI     SI113988   7.744   0.491   8.658  0.0000  0.0000  0.0000
13989SI     SI113989   0.905   3.674   0.350  0.0000  0.0000  0.0000
13990SI     SI113990   6.064   5.963   0.997  0.0000  0.0000  0.0000
13991SI     SI113991   9.140   4.967   0.672  0.0000  0.0000  0.0000
13992SI     SI113992   0.287   6.829   8.636  0.0000  0.0000  0.0000
13993SI     SI113993   0.635   0.836   9.264  0.0000  0.0000  0.0000
13994SI     SI113994   8.492   4.142   0.804  0.0000  0.0000  0.0000
13995SI     SI113995   5.980   3.802   0.387  0.0000  0.0000  0.0000
13996SI     SI113996   1.882   1.206   9.086  0.0000  0.0000  0.0000
13997SI     SI113997   0.367   3.416   9.491  0.0000  0.0000  0.0000
13998SI     SI113998   1.734   8.884   9.233  0.0000  0.0000  0.0000
13999SI     SI113999   9.323   4.856   0.438  0.0000  0.0000  0.0000
14000SI     SI114000   1.948   4.551   8.962  0.0000  0.0000  0.0000
14001SI     SI114001   5.086   3.157   1.176  0.0000  0.0000  0.0000
14002SI     SI114002   1.303   7.989   0.316  0.0000  0.0000  0.0000
14003SI     SI114003   1.134   4.548   0.334  0.0000  0.0000  0.0000
14004SI     SI114004   6.822   8.490   8.415  0.0000  0.0000  0.0000
14005SI     SI114005   9.580   8.081   8.597  0.0000  0.0000  0.0000
14006SI     SI114006   1.759   7.634   0.073  0.0000  0.0000  0.0000
14007SI     SI114007   2.009   1.589   0.242  0.0000  0.0000  0.0000
14008SI     SI114008   5.615   6.165   0.592  0.0000  0.0000  0.0000
14009SI     SI114009   1.465   3.924   9.509  0.0000  0.0000  0.0000
14010SI     SI114010   4.255   2.785   9.593  0.0000  0.0000  0.0000
14011SI     SI114011   5.880   3.748   8.470  0.0000  0.0000  0.0000
14012SI     SI114012   8.289   2.729   0.473  0.0000  0.0000  0.0000
14013SI     SI114013   5.918   1.422   8.924  0.0000  0.0000  0.0000
14014SI     SI114014   3.185   3.378   0.043  0.0000  0.0000  0.0000
14015SI     SI114015   5.617   6.418   0.195  0.0000  0.0000  0.0000
14016SI     SI114016   0.622   4.828   8.906  0.0000  0.0000  0.0000
14017SI     SI114017   5.681   5.476   0.116  0.0000  0.0000  0.0000
14018SI     SI114018   0.861   6.177   0.943  0.0000  0.0000  0.0000
14019SI     SI114019   3.901   1.564   9.236  0.0000  0.0000  0.0000
14020SI     SI114020   6.566   4.313   9.472  0.0000  0.0000  0.0000
14021SI     SI114021   8.976   3.012   9.373  0.0000  0.0000  0.0000
14022SI     SI114022   8.329   3.795   9.505  0.0000  0.0000  0.0000
14023SI     SI114023   1.530   4.440   8.869  0.0000  0.0000  0.0000
14024SI     SI114024   5.317   7.160   9.159  0.0000  0.0000  0.0000
14025SI     SI114025   1.013   7.926   0.269  0.0000  0.0000  0.0000
14026SI     SI114026   2.236   6.612   0.470  0.0000  0.0000  0.0000
14027SI     SI114027   4.718   2.503   8.244  0.0000  0.0000  0.0000
14028SI     SI114028   6.780   0.270   0.207  0.0000  0.0000  0.0000
14029SI     SI114029   3.535   0.087   9.559  0.0000  0.0000  0.0000
14030SI     SI114030   8.107   3.188   8.948  0.0000  0.0000  0.0000
14031SI     SI114031   4.198   4.090   9.018  0.0000  0.0000  0.0000
14032SI     SI114032   3.020   4.940   9.305  0.0000  0.0000  0.0000
14033SI     SI114033   3.364   8.664   8.455  0.0000  0.0000  0.0000
14034SI     SI114034   5.314   0.282   0.851  0.0000  0.0000  0.0000
14035SI     SI114035   5.911   4.541   8.418  0.0000  0.0000  0.0000
14036SI     SI114036   3.364   3.009   8.943  0.0000  0.0000  0.0000
14037SI     SI114037   7.239   8.454   8.896  0.0000  0.0000  0.0000
14038SI     SI114038   8.772   3.168   8.609  0.0000  0.0000  0.0000
14039SI     SI114039   7.749   1.499   9.136  0.0000  0.0000  0.0000
14040SI     SI114040   2.178   8.216   8.401  0.0000  0.0000  0.0000
14041SI     SI114041   0.111   2.669   8.808  0.0000  0.0000  0.0000
14042SI     SI114042   4.398   9.075   0.140  0.0000  0.0000  0.0000
14043SI     SI114043   3.069   9.114   1.073  0.0000  0.0000  0.0000
14044SI     SI114044   4.378   1.724   8.748  0.0000  0.0000  0.0000
14045SI     SI114045   8.813   8.306   1.144  0.0000  0.0000  0.0000
14046SI     SI114046   1.316   7.957   8.891  0.0000  0.0000  0.0000
14047SI     SI114047   8.212   9.091   9.214  0.0000  0.0000  0.0000
14048SI     SI114048   1.887   0.790   8.841  0.0000  0.0000  0.0000
14049SI     SI114049   9.598   7.917   9.239  0.0000  0.0000  0.0000
14050SI     SI114050   1.015   6.431   1.306  0.0000  0.0000  0.0000
14051SI     SI114051   6.905   0.001   0.207  0.0000  0.0000  0.0000
14052SI     SI114052   6.114   6.665   0.679  0.0000  0.0000  0.0000
14053SI     SI114053   9.054   3.430   0.831  0.0000  0.0000  0.0000
14054SI     SI114054   0.551   7.137   0.298  0.0000  0.0000  0.0000
14055SI     SI114055   5.981   5.095   9.483  0.0000  0.0000  0.0000
14056SI     SI114056   1.607   2.786   8.219  0.0000  0.0000  0.0000
14057SI     SI114057   5.631   4.382   9.597  0.0000  0.0000  0.0000
14058SI     SI114058   2.693   1.902   0.773  0.0000  0.0000  0.0000
14059SI     SI114059   1.898   7.495   8.333  0.0000  0.0000  0.0000
14060SI     SI114060   0.327   3.408   0.359  0.0000  0.0000  0.0000
14061SI     SI114061   7.770   5.518   0.082  0.0000  0.0000  0.0000
14062SI     SI114062   8.932   7.862   8.935  0.0000  0.0000  0.0000
14063SI     SI114063   2.737   3.177   9.416  0.0000  0.0000  0.0000
14064SI     SI114064   8.077   6.358   1.092  0.0000  0.0000  0.0000
14065SI     SI114065   0.220   4.004   0.517  0.0000  0.0000  0.0000
14066SI     SI114066   0.778   4.397   8.662  0.0000  0.0000  0.0000
14067SI     SI114067   6.453   2.549   9.410  0.0000  0.0000  0.0000
14068SI     SI114068   5.113   1.762   9.465  0.0000  0.0000  0.0000
14069SI     SI114069   5.854   2.828   8.349  0.0000  0.0000  0.0000
14070SI     SI114070   7.036   3.301   9.341  0.0000  0.0000  0.0000
14071SI     SI114071   1.534   6.273   1.159  0.0000  0.0000  0.0000
14072SI     SI114072   7.983   1.469   9.585  0.0000  0.0000  0.0000
14073SI     SI114073   3.576   6.360   8.233  0.0000  0.0000  0.0000
14074SI     SI114074   8.521   2.906   1.094  0.0000  0.0000  0.0000
14075SI     SI114075   7.120   5.175   8.604  0.0000  0.0000  0.0000
14076SI     SI114076   1.702   9.314   0.497  0.0000  0.0000  0.0000
14077SI     SI114077   3.957   3.964   1.090  0.0000  0.0000  0.0000
14078SI     SI114078   4.769   5.481   9.484  0.0000  0.0000  0.0000
14079SI     SI114079   6.959   2.778   0.923  0.0000  0.0000  0.0000
14080SI     SI114080   0.768   8.666   0.090  0.0000  0.0000  0.0000
14081SI     SI114081   2.709   0.371   9.100  0.0000  0.0000  0.0000
14082SI     SI114082   2.817   4.264   0.840  0.0000  0.0000  0.0000
14083SI     SI114083   4.838   9.374   0.141  0.0000  0.0000  0.0000
14084SI     SI114084   8.112   3.856   9.298  0.0000  0.0000  0.0000
14085SI     SI114085   3.023   5.261   8.542  0.0000  0.0000  0.0000
14086SI     SI114086   2.583   7.791   1.235  0.0000  0.0000  0.0000
14087SI     SI114087   8.586   1.597   8.848  0.0000  0.0000  0.0000
14088SI     SI114088   9.172   3.682   0.429  0.0000  0.0000  0.0000
14089SI     SI114089   7.018   6.830   0.870  0.0000  0.0000  0.0000
14090SI     SI114090   9.025   9.272   9.352  0.0000  0.0000  0.0000
14091SI     SI114091   5.573   9.250   0.192  0.0000  0.0000  0.0000
14092SI     SI114092   5.918   5.598   0.485  0.0000  0.0000  0.0000
14093SI     SI114093   1.725   8.713   8.803  0.0000  0.0000  0.0000
14094SI     SI114094   7.219   8.801   9.594  0.0000  0.0000  0.0000
14095SI     SI114095   6.951   1.409   9.265  0.0000  0.0000  0.0000
14096SI     SI114096   5.761   2.888   1.365  0.0000  0.0000  0.0000
14097SI     SI114097   5.250   2.253   0.955  0.0000  0.0000  0.0000
14098SI     SI114098   4.933   0.380   8.987  0.0000  0.0000  0.0000
14099SI     SI114099   2.542   6.450   1.108  0.0000  0.0000  0.0000
14100SI     SI114100   6.686   2.495   8.602  0.0000  0.0000  0.0000
14101SI     SI114101   7.968   3.990   1.146  0.0000  0.0000  0.0000
14102SI     SI114102   8.497   8.680   0.276  0.0000  0.0000  0.0000
14103SI     SI114103   7.459   8.088   1.273  0.0000  0.0000  0.0000
14104SI     SI114104   7.009   9.382   8.444  0.0000  0.0000  0.0000
14105SI     SI114105   6.455   7.264   1.024  0.0000  0.0000  0.0000
14106SI     SI114106   9.177   0.335   1.090  0.0000  0.0000  0.0000
14107SI     SI114107   8.410   3.120   9.264  0.0000  0.0000  0.0000
14108SI     SI114108   3.388   2.659   0.067  0.0000  0.0000  0.0000
14109SI     SI114109   5.874   5.510   8.355  0.0000  0.0000  0.0000
14110SI     SI114110   1.363   7.631   9.455  0.0000  0.0000  0.0000
14111SI     SI114111   6.331   1.262   8.839  0.0000  0.0000  0.0000
14112SI     SI114112   7.360   1.356   0.970  0.0000  0.0000  0.0000
14113SI     SI114113   5.596   8.059   0.213  0.0000  0.0000  0.0000
14114SI     SI114114   9.569   9.426   8.452  0.0000  0.0000  0.0000
14115SI     SI114115   8.080   9.200   8.765  0.0000  0.0000  0.0000
14116SI     SI114116   6.070   7.672   8.965  0.0000  0.0000  0.0000
14117SI     SI114117   8.434   2.489   9.561  0.0000  0.0000  0.0000
14118SI     SI114118   6.761   2.367   0.920  0.0000  0.0000  0.0000
14119SI     SI114119   7.167   6.513   8.975  0.0000  0.0000  0.0000
14120SI     SI114120   6.639   3.549   8.603  0.0000  0.0000  0.0000
14121SI     SI114121   6.923   0.520   1.097  0.0000  0.0000  0.0000
14122SI     SI114122   0.909   0.433   0.240  0.0000  0.0000  0.0000
14123SI     SI114123   1.146   5.716   8.168  0.0000  0.0000  0.0000
14124SI     SI114124   4.310   8.020   1.110  0.0000  0.0000  0.0000
14125SI     SI114125   7.696   6.664   9.569  0.0000  0.0000  0.0000
14126SI     SI114126   4.368   3.424   0.412  0.0000  0.0000  0.0000
14127SI     SI114127   9.518   8.337   1.144  0.0000  0.0000  0.0000
14128SI     SI114128   2.140   5.484   8.604  0.0000  0.0000  0.0000
14129SI     SI114129   1.151   6.989   8.610  0.0000  0.0000  0.0000
14130SI     SI114130   3.985   0.009   0.375  0.0000  0.0000  0.0000
14131SI     SI114131   8.659   8.914   0.146  0.0000  0.0000  0.0000
14132SI     SI114132   1.385   4.314   1.113  0.0000  0.0000  0.0000
14133SI     SI114133   5.337   9.413   8.503  0.0000  0.0000  0.0000
14134SI     SI114134   1.836   7.304   0.664  0.0000  0.0000  0.0000
14135SI     SI114135   2.766   3.062   0.312  0.0000  0.0000  0.0000
14136SI     SI114136   7.181   8.125   1.220  0.0000  0.0000  0.0000
14137SI     SI114137   1.400   8.993   0.733  0.0000  0.0000  0.0000
14138SI     SI114138   6.229   8.136   9.167  0.0000  0.0000  0.0000
14139SI     SI114139   1.321   3.859   0.170  0.0000  0.0000  0.0000
14140SI     SI114140   1.817   8.886   1.238  0.0000  0.0000  0.0000
14141SI     SI114141   5.913   7.653   0.263  0.0000  0.0000  0.0000
14142SI     SI114142   8.401   9.109   0.662  0.0000  0.0000  0.0000
14143SI     SI114143   5.825   2.265   9.134  0.0000  0.0000  0.0000
14144SI     SI114144   3.425   6.966   9.216  0.0000  0.0000  0.0000
14145SI     SI114145   5.293   6.860   9.228  0.0000  0.0000  0.0000
14146SI     SI114146   0.541   0.666   0.476  0.0000  0.0000  0.0000
14147SI     SI114147   2.623   9.572   0.936  0.0000  0.0000  0.0000
14148SI     SI114148   3.944   1.063   9.472  0.0000  0.0000  0.0000
14149SI     SI114149   9.245   4.400   9.256  0.0000  0.0000  0.0000
14150SI     SI114150   7.811   8.004   0.689  0.0000  0.0000  0.0000
14151SI     SI114151   1.878   7.697   0.835  0.0000  0.0000  0.0000
14152SI     SI114152   4.627   4.691   8.703  0.0000  0.0000  0.0000
14153SI     SI114153   5.533   2.292   0.406  0.0000  0.0000  0.0000
14154SI     SI114154   2.612   9.004   8.409  0.0000  0.0000  0.0000
14155SI     SI114155   3.554   3.184   8.541  0.0000  0.0000  0.0000
14156SI     SI114156   6.612   1.665   0.332  0.0000  0.0000  0.0000
14157SI     SI114157   0.914   2.064   9.085  0.0000  0.0000  0.0000
14158SI     SI114158   7.401   0.225   1.006  0.0000  0.0000  0.0000
14159SI     SI114159   5.445   9.468   0.972  0.0000  0.0000  0.0000
14160SI     SI114160   1.410   6.245   9.160  0.0000  0.0000  0.0000
14161SI     SI114161   6.402   7.871   0.232  0.0000  0.0000  0.0000
14162SI     SI114162   4.026   8.424   1.035  0.0000  0.0000  0.0000
14163SI     SI114163   7.138   0.578   8.385  0.0000  0.0000  0.0000
14164SI     SI114164   0.507   3.796   0.132  0.0000  0.0000  0.0000
14165SI     SI114165   7.321   7.295   1.085  0.0000  0.0000  0.0000
14166SI     SI114166   4.347   7.351   9.413  0.0000  0.0000  0.0000
14167SI     SI114167   3.384   0.908   8.557  0.0000  0.0000  0.0000
14168SI     SI114168   0.644   7.300   0.546  0.0000  0.0000  0.0000
14169SI     SI114169   8.747   5.928   0.740  0.0000  0.0000  0.0000
14170SI     SI114170   2.604   8.381   9.256  0.0000  0.0000  0.0000
14171SI     SI114171   1.183   8.518   0.282  0.0000  0.0000  0.0000
14172SI     SI114172   9.322   1.671   9.331  0.0000  0.0000  0.0000
14173SI     SI114173   1.914   2.654   1.155  0.0000  0.0000  0.0000
14174SI     SI114174   5.651   7.577   0.390  0.0000  0.0000  0.0000
14175SI     SI114175   8.243   5.461   8.195  0.0000  0.0000  0.0000
14176SI     SI114176   0.413   3.113   8.955  0.0000  0.0000  0.0000
14177SI     SI114177   6.138   1.601   8.784  0.0000  0.0000  0.0000
14178SI     SI114178   6.314   0.876   0.567  0.0000  0.0000  0.0000
14179SI     SI114179   6.875   1.375   9.552  0.0000  0.0000  0.0000
14180SI     SI114180   0.021   5.807   8.336  0.0000  0.0000  0.0000
14181SI     SI114181   9.102   5.699   8.816  0.0000  0.0000  0.0000
14182SI     SI114182   2.965   2.227   9.555  0.0000  0.0000  0.0000
14183SI     SI114183   3.674   8.618   8.821  0.0000  0.0000  0.0000
14184SI     SI114184   3.021   1.097   8.943  0.0000  0.0000  0.0000
14185SI     SI114185   0.640   7.202   9.021  0.0000  0.0000  0.0000
14186SI     SI114186   6.218   6.966   8.809  0.0000  0.0000  0.0000
14187SI     SI114187   5.297   9.393   0.250  0.0000  0.0000  0.0000
14188SI     SI114188   7.738   0.888   8.304  0.0000  0.0000  0.0000
14189SI     SI114189   8.406   9.512   8.950  0.0000  0.0000  0.0000
14190SI     SI114190   2.587   2.314   9.112  0.0000  0.0000  0.0000
14191SI     SI114191   4.191   8.504   8.556  0.0000  0.0000  0.0000
14192SI     SI114192   2.324   3.523   0.932  0.0000  0.0000  0.0000
14193SI     SI114193   3.840   8.052   8.984  0.0000  0.0000  0.0000
14194SI     SI114194   5.420   2.742   0.904  0.0000  0.0000  0.0000
14195SI     SI114195   9.137   3.678   0.129  0.0000  0.0000  0.0000
14196SI     SI114196   0.040   1.594   1.240  0.0000  0.0000  0.0000
14197SI     SI114197   9.365   8.184   0.916  0.0000  0.0000  0.0000
14198SI     SI114198   6.418   2.457   1.107  0.0000  0.0000  0.0000
14199SI     SI114199   3.330   4.580   0.509  0.0000  0.0000  0.0000
14200SI     SI114200   5.502   5.282   9.549  0.0000  0.0000  0.0000
14201SI     SI114201   7.116   3.391   8.394  0.0000  0.0000  0.0000
14202SI     SI114202   3.183   6.226   1.088  0.0000  0.0000  0.0000
14203SI     SI114203   0.280   0.413   9.499  0.0000  0.0000  0.0000
14204SI     SI114204   6.682   8.922   1.188  0.0000  0.0000  0.0000
14205SI     SI114205   0.536   8.478   0.057  0.0000  0.0000  0.0000
14206SI     SI114206   4.834   7.465   0.055  0.0000  0.0000  0.0000
14207SI     SI114207   4.078   5.595   9.165  0.0000  0.0000  0.0000
14208SI     SI114208   8.055   5.858   0.985  0.0000  0.0000  0.0000
14209SI     SI114209   6.614   8.951   0.635  0.0000  0.0000  0.0000
14210SI     SI114210   4.228   0.810   9.082  0.0000  0.0000  0.0000
14211SI     SI114211   6.055   5.076   1.120  0.0000  0.0000  0.0000
14212SI     SI114212   4.622   3.721   8.712  0.0000  0.0000  0.0000
14213SI     SI114213   9.474   1.691   0.518  0.0000  0.0000  0.0000
14214SI     SI114214   8.565   2.436   8.632  0.0000  0.0000  0.0000
14215SI     SI114215   0.536   6.663   0.966  0.0000  0.0000  0.0000
14216SI     SI114216   0.049   8.031   9.526  0.0000  0.0000  0.0000
14217SI     SI114217   0.278   3.553   9.222  0.0000  0.0000  0.0000
14218SI     SI114218   2.387   4.536   9.266  0.0000  0.0000  0.0000
14219SI     SI114219   8.812   2.460   0.540  0.0000  0.0000  0.0000
14220SI     SI114220   1.846   1.090   8.804  0.0000  0.0000  0.0000
14221SI     SI114221   8.451   0.182   0.162  0.0000  0.0000  0.0000
14222SI     SI114222   8.038   9.385   0.035  0.0000  0.0000  0.0000
14223SI     SI114223   1.412   5.015   0.049  0.0000  0.0000  0.0000
14224SI     SI114224   1.842   5.194   1.391  0.0000  0.0000  0.0000
14225SI     SI114225   2.080   3.377   1.066  0.0000  0.0000  0.0000
14226SI     SI114226   5.765   4.309   9.192  0.0000  0.0000  0.0000
14227SI     SI114227   0.625   5.071   9.418  0.0000  0.0000  0.0000
14228SI     SI114228   6.619   1.732   9.435  0.0000  0.0000  0.0000
14229SI     SI114229   7.107   9.396   1.131  0.0000  0.0000  0.0000
14230SI     SI114230   0.302   6.180   9.027  0.0000  0.0000  0.0000
14231SI     SI114231   3.577   2.047   1.323  0.0000  0.0000  0.0000
14232SI     SI114232   8.225   7.164   8.700  0.0000  0.0000  0.0000
14233SI     SI114233   2.387   8.119   9.556  0.0000  0.0000  0.0000
14234SI     SI114234   5.589   5.564   9.257  0.0000  0.0000  0.0000
14235SI     SI114235   4.350   1.622   9.492  0.0000  0.0000  0.0000
14236SI     SI114236   2.448   1.225   1.011  0.0000  0.0000  0.0000
14237SI     SI114237   0.667   1.255   8.271  0.0000  0.0000  0.0000
14238SI     SI114238   0.033   5.985   0.201  0.0000  0.0000  0.0000
14239SI     SI114239   7.204   2.733   0.425  0.0000  0.0000  0.0000
14240SI     SI114240   5.896   8.135   0.264  0.0000  0.0000  0.0000
14241SI     SI114241   1.726   8.149   0.582  0.0000  0.0000  0.0000
14242SI     SI114242   4.309   3.796   0.767  0.0000  0.0000  0.0000
14243SI     SI114243   7.894   2.695   8.303  0.0000  0.0000  0.0000
14244SI     SI114244   4.269   1.992   8.671  0.0000  0.0000  0.0000
14245SI     SI114245   1.027   3.261   9.181  0.0000  0.0000  0.0000
14246SI     SI114246   1.623   5.340   8.652  0.0000  0.0000  0.0000
14247SI     SI114247   5.307   3.347   8.690  0.0000  0.0000  0.0000
14248SI     SI114248   3.063   0.278   9.391  0.0000  0.0000  0.0000
14249SI     SI114249   9.420   4.608   8.846  0.0000  0.0000  0.0000
14250SI     SI114250   1.096   6.221   9.165  0.0000  0.0000  0.0000
14251SI     SI114251   4.983   2.811   8.362  0.0000  0.0000  0.0000
14252SI     SI114252   1.736   2.397   8.715  0.0000  0.0000  0.0000
14253SI     SI114253   6.805   1.652   0.078  0.0000  0.0000  0.0000
14254SI     SI114254   3.088   3.641   0.724  0.0000  0.0000  0.0000
14255SI     SI114255   0.176   1.740   0.471  0.0000  0.0000  0.0000
14256SI     SI114256   4.957   7.063   0.470  0.0000  0.0000  0.0000
14257SI     SI114257   1.202   2.676   9.426  0.0000  0.0000  0.0000
14258SI     SI114258   0.027   2.246   0.096  0.0000  0.0000  0.0000
14259SI     SI114259   1.746   7.988   8.778  0.0000  0.0000  0.0000
14260SI     SI114260   3.220   6.578   9.601  0.0000  0.0000  0.0000
14261SI     SI114261   5.639   8.169   9.321  0.0000  0.0000  0.0000
14262SI     SI114262   9.045   2.770   0.354  0.0000  0.0000  0.0000
14263SI     SI114263   5.164   0.639   0.490  0.0000  0.0000  0.0000
14264SI     SI114264   8.169   8.034   8.858  0.0000  0.0000  0.0000
14265SI     SI114265   0.696   5.555   8.883  0.0000  0.0000  0.0000
14266SI     SI114266   8.646   1.273   0.255  0.0000  0.0000  0.0000
14267SI     SI114267   7.265   8.924   1.236  0.0000  0.0000  0.0000
14268SI     SI114268   7.487   7.581   0.548  0.0000  0.0000  0.0000
14269SI     SI114269   5.919   1.256   0.357  0.0000  0.0000  0.0000
14270SI     SI114270   4.581   7.214   9.262  0.0000  0.0000  0.0000
14271SI     SI114271   3.989   3.232   8.989  0.0000  0.0000  0.0000
14272SI     SI114272   7.854   6.592   8.482  0.0000  0.0000  0.0000
14273SI     SI114273   9.524   0.715   8.914  0.0000  0.0000  0.0000
14274SI     SI114274   6.377   3.892   0.117  0.0000  0.0000  0.0000
14275SI     SI114275   0.544   4.772   1.185  0.0000  0.0000  0.0000
14276SI     SI114276   2.132   4.149   0.961  0.0000  0.0000  0.0000
14277SI     SI114277   4.992   8.572   9.248  0.0000  0.0000  0.0000
14278SI     SI114278   3.686   4.370   0.201  0.0000  0.0000  0.0000
14279SI     SI114279   1.257   6.338   0.430  0.0000  0.0000  0.0000
14280SI     SI114280   8.834   7.601   1.030  0.0000  0.0000  0.0000
14281SI     SI114281   4.540   8.980   9.493  0.0000  0.0000  0.0000
14282SI     SI114282   9.408   4.186   0.476  0.0000  0.0000  0.0000
14283SI     SI114283   0.337   8.574   8.415  0.0000  0.0000  0.0000
14284SI     SI114284   5.088   1.987   9.270  0.0000  0.0000  0.0000
14285SI     SI114285   7.723   8.851   0.780  0.0000  0.0000  0.0000
14286SI     SI114286   4.625   7.551   0.264  0.0000  0.0000  0.0000
14287SI     SI114287   6.223   9.311   9.380  0.0000  0.0000  0.0000
14288SI     SI114288   6.534   3.337   0.648  0.0000  0.0000  0.0000
14289SI     SI114289   8.392   5.037   0.609  0.0000  0.0000  0.0000
14290SI     SI114290   2.544   3.760   9.456  0.0000  0.0000  0.0000
14291SI     SI114291   1.866   5.444   0.431  0.0000  0.0000  0.0000
14292SI     SI114292   1.069   6.772   8.807  0.0000  0.0000  0.0000
14293SI     SI114293   0.158   0.757   8.709  0.0000  0.0000  0.0000
14294SI     SI114294   0.648   1.145   0.569  0.0000  0.0000  0.0000
14295SI     SI114295   1.892   2.638   9.545  0.0000  0.0000  0.0000
14296SI     SI114296   0.825   1.116   0.132  0.0000  0.0000  0.0000
14297SI     SI114297   0.026   9.247   9.440  0.0000  0.0000  0.0000
14298SI     SI114298   3.632   4.491   9.226  0.0000  0.0000  0.0000
14299SI     SI114299   0.689   3.300   0.979  0.0000  0.0000  0.0000
14300SI     SI114300   0.272   9.134   9.580  0.0000  0.0000  0.0000
14301SI     SI114301   2.760   0.485   9.582  0.0000  0.0000  0.0000
14302SI     SI114302   0.386   7.901   8.332  0.0000  0.0000  0.0000
14303SI     SI114303   3.455   5.389   8.232  0.0000  0.0000  0.0000
14304SI     SI114304   2.563   4.013   0.644  0.0000  0.0000  0.0000
14305SI     SI114305   5.955   7.046   8.661  0.0000  0.0000  0.0000
14306SI     SI114306   1.066   6.257   0.758  0.0000  0.0000  0.0000
14307SI     SI114307   1.381   2.415   0.608  0.0000  0.0000  0.0000
14308SI     SI114308   0.436   8.662   9.178  0.0000  0.0000  0.0000
14309SI     SI114309   4.990   5.848   0.101  0.0000  0.0000  0.0000
14310SI     SI114310   0.958   1.167   0.558  0.0000  0.0000  0.0000
14311SI     SI114311   0.796   6.259   0.580  0.0000  0.0000  0.0000
14312SI     SI114312   4.564   7.231   0.809  0.0000  0.0000  0.0000
14313SI     SI114313   8.491   6.222   0.149  0.0000  0.0000  0.0000
14314SI     SI114314   2.369   4.855   1.114  0.0000  0.0000  0.0000
14315SI     SI114315   8.037   3.432   0.693  0.0000  0.0000  0.0000
14316SI     SI114316   8.910   4.019   0.602  0.0000  0.0000  0.0000
14317SI     SI114317   1.860   9.459   9.345  0.0000  0.0000  0.0000
14318SI     SI114318   4.199   3.158   1.014  0.0000  0.0000  0.0000
14319SI     SI114319   3.850   9.311   9.459  0.0000  0.0000  0.0000
14320SI     SI114320   1.836   2.448   9.002  0.0000  0.0000  0.0000
14321SI     SI114321   4.329   1.392   0.573  0.0000  0.0000  0.0000
14322SI     SI114322   3.132   1.274   8.445  0.0000  0.0000  0.0000
14323SI     SI114323   0.201   2.743   9.261  0.0000  0.0000  0.0000
14324SI     SI114324   6.887   6.622   9.405  0.0000  0.0000  0.0000
14325SI     SI114325   5.196   1.079   1.111  0.0000  0.0000  0.0000
14326SI     SI114326   6.501   8.599   9.004  0.0000  0.0000  0.0000
14327SI     SI114327   7.441   5.091   9.169  0.0000  0.0000  0.0000
14328SI     SI114328   4.068   2.010   0.106  0.0000  0.0000  0.0000
14329SI     SI114329   4.254   0.273   8.775  0.0000  0.0000  0.0000
14330SI     SI114330   7.324   5.348   9.050  0.0000  0.0000  0.0000
14331SI     SI114331   4.783   9.124   0.561  0.0000  0.0000  0.0000
14332SI     SI114332   6.196   5.797   8.367  0.0000  0.0000  0.0000
14333SI     SI114333   6.608   0.018   0.631  0.0000  0.0000  0.0000
14334SI     SI114334   2.537   6.181   8.621  0.0000  0.0000  0.0000
14335SI     SI114335   5.281   6.475   9.048  0.0000  0.0000  0.0000
14336SI     SI114336   3.733   6.182   0.333  0.0000  0.0000  0.0000
14337SI     SI114337   1.384   0.405   9.382  0.0000  0.0000  0.0000
14338SI     SI114338   1.401   2.412   8.305  0.0000  0.0000  0.0000
14339SI     SI114339   3.162   8.084   8.692  0.0000  0.0000  0.0000
14340SI     SI114340   3.862   3.935   0.806  0.0000  0.0000  0.0000
14341SI     SI114341   5.456   3.181   9.112  0.0000  0.0000  0.0000
14342SI     SI114342   5.875   5.502   9.329  0.0000  0.0000  0.0000
14343SI     SI114343   7.855   1.328   8.430  0.0000  0.0000  0.0000
14344SI     SI114344   2.798   9.236   8.487  0.0000  0.0000  0.0000
14345SI     SI114345   5.365   8.812   0.157  0.0000  0.0000  0.0000
14346SI     SI114346   7.344   2.675   0.032  0.0000  0.0000  0.0000
14347SI     SI114347   2.922   0.614   8.701  0.0000  0.0000  0.0000
14348SI     SI114348   2.320   6.637   9.407  0.0000  0.0000  0.0000
14349SI     SI114349   8.111   0.242   9.417  0.0000  0.0000  0.0000
14350SI     SI114350   8.422   9.238   0.100  0.0000  0.0000  0.0000
14351SI     SI114351   4.408   6.843   1.142  0.0000  0.0000  0.0000
14352SI     SI114352   5.557   6.604   8.591  0.0000  0.0000  0.0000
14353SI     SI114353   4.138   6.517   9.441  0.0000  0.0000  0.0000
14354SI     SI114354   4.516   9.375   0.736  0.0000  0.0000  0.0000
14355SI     SI114355   9.180   2.293   0.287  0.0000  0.0000  0.0000
14356SI     SI114356   9.124   5.861   0.204  0.0000  0.0000  0.0000
14357SI     SI114357   3.742   8.976   9.024  0.0000  0.0000  0.0000
14358SI     SI114358   3.683   2.960   9.342  0.0000  0.0000  0.0000
14359SI     SI114359   7.258   4.448   0.168  0.0000  0.0000  0.0000
14360SI     SI114360   7.944   5.257   0.672  0.0000  0.0000  0.0000
14361SI     SI114361   6.245   1.403   8.322  0.0000  0.0000  0.0000
14362SI     SI114362   5.978   2.248   0.842  0.0000  0.0000  0.0000
14363SI     SI114363   0.640   6.724   0.518  0.0000  0.0000  0.0000
14364SI     SI114364   7.501   3.431   9.215  0.0000  0.0000  0.0000
14365SI     SI114365   8.648   5.875   0.011  0.0000  0.0000  0.0000
14366SI     SI114366   4.452   2.768   1.209  0.0000  0.0000  0.0000
14367SI     SI114367   6.997   1.873   9.296  0.0000  0.0000  0.0000
14368SI     SI114368   8.582   0.615   8.928  0.0000  0.0000  0.0000
14369SI     SI114369   4.823   8.398   0.724  0.0000  0.0000  0.0000
14370SI     SI114370   5.003   4.288   9.485  0.0000  0.0000  0.0000
14371SI     SI114371   3.579   5.252   0.317  0.0000  0.0000  0.0000
14372SI     SI114372   5.581   2.275   9.532  0.0000  0.0000  0.0000
14373SI     SI114373   3.248   8.800   0.393  0.0000  0.0000  0.0000
14374SI     SI114374   2.212   6.753   8.902  0.0000  0.0000  0.0000
14375SI     SI114375   5.910   3.883   9.493  0.0000  0.0000  0.0000
14376SI     SI114376   4.662   4.854   0.733  0.0000  0.0000  0.0000
14377SI     SI114377   8.034   7.537   8.846  0.0000  0.0000  0.0000
14378SI     SI114378   0.019   6.222   8.915  0.0000  0.0000  0.0000
14379SI     SI114379   4.862   4.210   0.640  0.0000  0.0000  0.0000
14380SI     SI114380   9.499   3.327   8.936  0.0000  0.0000  0.0000
14381SI     SI114381   8.006   2.420   0.143  0.0000  0.0000  0.0000
14382SI     SI114382   0.274   9.162   8.462  0.0000  0.0000  0.0000
14383SI     SI114383   5.280   1.549   9.320  0.0000  0.0000  0.0000
14384SI     SI114384   3.865   2.851   8.859  0.0000  0.0000  0.0000
14385SI     SI114385   6.321   5.272   8.234  0.0000  0.0000  0.0000
14386SI     SI114386   8.888   1.593   8.939  0.0000  0.0000  0.0000
14387SI     SI114387   3.073   4.205   1.221  0.0000  0.0000  0.0000
14388SI     SI114388   3.625   4.423   8.934  0.0000  0.0000  0.0000
14389SI     SI114389   2.001   4.124   0.148  0.0000  0.0000  0.0000
14390SI     SI114390   2.212   1.945   9.491  0.0000  0.0000  0.0000
14391SI     SI114391   7.721   9.297   9.350  0.0000  0.0000  0.0000
14392SI     SI114392   3.479   6.797   1.333  0.0000  0.0000  0.0000
14393SI     SI114393   3.268   8.191   8.202  0.0000  0.0000  0.0000
14394SI     SI114394   7.772   8.127   9.125  0.0000  0.0000  0.0000
14395SI     SI114395   8.555   8.494   9.411  0.0000  0.0000  0.0000
14396SI     SI114396   8.596   2.795   8.947  0.0000  0.0000  0.0000
14397SI     SI114397   3.486   0.792   9.233  0.0000  0.0000  0.0000
14398SI     SI114398   5.676   4.486   0.408  0.0000  0.0000  0.0000
14399SI     SI114399   0.677   5.777   1.145  0.0000  0.0000  0.0000
14400SI     SI114400   8.558   4.471   9.430  0.0000  0.0000  0.0000
14401SI     SI114401   0.513   5.850   0.440  0.0000  0.0000  0.0000
14402SI     SI114402   3.500   4.785   8.749  0.0000  0.0000  0.0000
14403SI     SI114403   2.277   3.125   8.249  0.0000  0.0000  0.0000
14404SI     SI114404   2.809   2.787   9.096  0.0000  0.0000  0.0000
14405SI     SI114405   8.768   4.534   0.756  0.0000  0.0000  0.0000
14406SI     SI114406   2.491   2.178   0.249  0.0000  0.0000  0.0000
14407SI     SI114407   4.186   6.061   9.392  0.0000  0.0000  0.0000
14408SI     SI114408   1.712   3.825   1.126  0.0000  0.0000  0.0000
14409SI     SI114409   9.248   6.189   0.763  0.0000  0.0000  0.0000
14410SI     SI114410   4.280   5.310   8.727  0.0000  0.0000  0.0000
14411SI     SI114411   9.090   6.467   9.568  0.0000  0.0000  0.0000
14412SI     SI114412   1.079   0.899   1.330  0.0000  0.0000  0.0000
14413SI     SI114413   6.628   9.484   0.109  0.0000  0.0000  0.0000
14414SI     SI114414   1.518   9.102   9.267  0.0000  0.0000  0.0000
14415SI     SI114415   9.152   6.692   9.358  0.0000  0.0000  0.0000
14416SI     SI114416   2.517   5.905   8.719  0.0000  0.0000  0.0000
14417SI     SI114417   7.301   5.411   0.759  0.0000  0.0000  0.0000
14418SI     SI114418   6.222   4.221   0.868  0.0000  0.0000  0.0000
14419SI     SI114419   2.706   7.452   8.731  0.0000  0.0000  0.0000
14420SI     SI114420   7.118   1.167   1.049  0.0000  0.0000  0.0000
14421SI     SI114421   8.187   7.281   9.462  0.0000  0.0000  0.0000
14422SI     SI114422   0.208   4.744   8.525  0.0000  0.0000  0.0000
14423SI     SI114423   0.688   8.958   0.731  0.0000  0.0000  0.0000
14424SI     SI114424   6.239   2.013   8.991  0.0000  0.0000  0.0000
14425SI     SI114425   5.979   2.898   9.160  0.0000  0.0000  0.0000
14426SI     SI114426   3.645   3.797   0.397  0.0000  0.0000  0.0000
14427SI     SI114427   6.174   0.540   0.817  0.0000  0.0000  0.0000
14428SI     SI114428   8.585   0.156   9.042  0.0000  0.0000  0.0000
14429SI     SI114429   0.095   3.469   0.556  0.0000  0.0000  0.0000
14430SI     SI114430   2.626   8.171   0.505  0.0000  0.0000  0.0000
14431SI     SI114431   6.320   2.720   9.222  0.0000  0.0000  0.0000
14432SI     SI114432   0.828   7.763   0.472  0.0000  0.0000  0.0000
14433SI     SI114433   0.826   9.453   8.584  0.0000  0.0000  0.0000
14434SI     SI114434   3.617   7.720   1.249  0.0000  0.0000  0.0000
14435SI     SI114435   7.718   8.687   0.271  0.0000  0.0000  0.0000
14436SI     SI114436   2.545   9.320   8.668  0.0000  0.0000  0.0000
14437SI     SI114437   0.977   8.132   8.254  0.0000  0.0000  0.0000
14438SI     SI114438   2.891   5.418   8.984  0.0000  0.0000  0.0000
14439SI     SI114439   5.846   6.817   0.737  0.0000  0.0000  0.0000
14440SI     SI114440   7.933   4.365   0.697  0.0000  0.0000  0.0000
14441SI     SI114441   4.221   3.179   9.422  0.0000  0.0000  0.0000
14442SI     SI114442   3.192   8.139   0.979  0.0000  0.0000  0.0000
14443SI     SI114443   3.646   0.778   0.182  0.0000  0.0000  0.0000
14444SI     SI114444   3.891   4.324   8.324  0.0000  0.0000  0.0000
14445SI     SI114445   4.734   1.810   0.741  0.0000  0.0000  0.0000
14446SI     SI114446   3.790   4.725   8.682  0.0000  0.0000  0.0000
14447SI     SI114447   7.805   0.473   1.136  0.0000  0.0000  0.0000
14448SI     SI114448   0.077   1.807   8.628  0.0000  0.0000  0.0000
14449SI     SI114449   0.461   5.572   1.192  0.0000  0.0000  0.0000
14450SI     SI114450   6.174   0.102   0.001  0.0000  0.0000  0.0000
14451SI     SI114451   0.544   5.502   0.094  0.0000  0.0000  0.0000
14452SI     SI114452   1.920   6.779   9.282  0.0000  0.0000  0.0000
14453SI     SI114453   3.868   8.985   0.598  0.0000  0.0000  0.0000
14454SI     SI114454   4.235   2.213   9.588  0.0000  0.0000  0.0000
14455SI     SI114455   2.444   6.241   0.919  0.0000  0.0000  0.0000
14456SI     SI114456   5.834   6.128   9.163  0.0000  0.0000  0.0000
14457SI     SI114457   5.887   5.303   8.588  0.0000  0.0000  0.0000
14458SI     SI114458   5.188   3.768   8.740  0.0000  0.0000  0.0000
14459SI     SI114459   7.806   7.784   1.218  0.0000  0.0000  0.0000
14460SI     SI114460   0.173   8.161   1.107  0.0000  0.0000  0.0000
14461SI     SI114461   8.853   5.760   8.631  0.0000  0.0000  0.0000
14462SI     SI114462   8.076   6.657   0.247  0.0000  0.0000  0.0000
14463SI     SI114463   3.249   4.169   0.966  0.0000  0.0000  0.0000
14464SI     SI114464   2.456   4.427   0.098  0.0000  0.0000  0.0000
14465SI     SI114465   0.833   3.765   9.417  0.0000  0.0000  0.0000
14466SI     SI114466   2.222   7.172   0.480  0.0000  0.0000  0.0000
14467SI     SI114467   5.293   2.650   9.482  0.0000  0.0000  0.0000
14468SI     SI114468   3.451   7.790   9.477  0.0000  0.0000  0.0000
14469SI     SI114469   5.956   6.245   0.908  0.0000  0.0000  0.0000
14470SI     SI114470   3.172   5.917   0.408  0.0000  0.0000  0.0000
14471SI     SI114471   0.621   2.816   0.644  0.0000  0.0000  0.0000
14472SI     SI114472   3.138   9.059   8.979  0.0000  0.0000  0.0000
14473SI     SI114473   6.751   2.485   0.643  0.0000  0.0000  0.0000
14474SI     SI114474   6.312   1.723   0.724  0.0000  0.0000  0.0000
14475SI     SI114475   0.789   1.003   8.865  0.0000  0.0000  0.0000
14476SI     SI114476   6.905   5.385   0.560  0.0000  0.0000  0.0000
14477SI     SI114477   8.565   7.901   8.472  0.0000  0.0000  0.0000
14478SI     SI114478   8.618   8.175   8.603  0.0000  0.0000  0.0000
14479SI     SI114479   3.307   8.848   8.819  0.0000  0.0000  0.0000
14480SI     SI114480   8.875   8.730   0.045  0.0000  0.0000  0.0000
14481SI     SI114481   6.952   7.192   9.306  0.0000  0.0000  0.0000
14482SI     SI114482   4.661   0.212   1.270  0.0000  0.0000  0.0000
14483SI     SI114483   2.966   8.003   9.497  0.0000  0.0000  0.0000
14484SI     SI114484   3.073   9.478   0.004  0.0000  0.0000  0.0000
14485SI     SI114485   3.075   4.151   0.706  0.0000  0.0000  0.0000
14486SI     SI114486   5.154   8.200   8.482  0.0000  0.0000  0.0000
14487SI     SI114487   1.562   8.283   1.026  0.0000  0.0000  0.0000
14488SI     SI114488   0.668   7.641   0.094  0.0000  0.0000  0.0000
14489SI     SI114489   7.216   4.025   0.898  0.0000  0.0000  0.0000
14490SI     SI114490   6.986   2.576   9.340  0.0000  0.0000  0.0000
14491SI     SI114491   7.137   0.268   8.704  0.0000  0.0000  0.0000
14492SI     SI114492   3.052   7.748   0.052  0.0000  0.0000  0.0000
14493SI     SI114493   8.094   6.963   9.151  0.0000  0.0000  0.0000
14494SI     SI114494   6.278   9.121   9.143  0.0000  0.0000  0.0000
14495SI     SI114495   2.895   4.464   9.113  0.0000  0.0000  0.0000
14496SI     SI114496   8.926   1.392   0.245  0.0000  0.0000  0.0000
14497SI     SI114497   0.972   0.139   9.239  0.0000  0.0000  0.0000
14498SI     SI114498   6.249   4.510   0.366  0.0000  0.0000  0.0000
14499SI     SI114499   3.551   2.559   9.038  0.0000  0.0000  0.0000
14500SI     SI114500   2.413   1.356   0.201  0.0000  0.0000  0.0000
14501SI     SI114501   4.406   2.930   9.366  0.0000  0.0000  0.0000
14502SI     SI114502   8.540   8.642   0.586  0.0000  0.0000  0.0000
14503SI     SI114503   1.992   0.563   0.460  0.0000  0.0000  0.0000
14504SI     SI114504   9.407   9.064   9.316  0.0000  0.0000  0.0000
14505SI     SI114505   6.495   0.267   8.351  0.0000  0.0000  0.0000
14506SI     SI114506   2.249   9.181   9.262  0.0000  0.0000  0.0000
14507SI     SI114507   3.567   7.070   0.399  0.0000  0.0000  0.0000
14508SI     SI114508   6.912   7.588   8.918  0.0000  0.0000  0.0000
14509SI     SI114509   7.136   8.244   0.296  0.0000  0.0000  0.0000
14510SI     SI114510   6.707   8.472   0.990  0.0000  0.0000  0.0000
14511SI     SI114511   3.324   1.495   0.497  0.0000  0.0000  0.0000
14512SI     SI114512   0.786   2.399   8.434  0.0000  0.0000  0.0000
14513SI     SI114513   0.633   6.849   0.226  0.0000  0.0000  0.0000
14514SI     SI114514   5.211   8.499   8.485  0.0000  0.0000  0.0000
14515SI     SI114515   4.766   1.932   8.545  0.0000  0.0000  0.0000
14516SI     SI114516   6.803   2.227   0.466  0.0000  0.0000  0.0000
14517SI     SI114517   8.570   2.474   0.225  0.0000  0.0000  0.0000
14518SI     SI114518   8.572   8.243   0.133  0.0000  0.0000  0.0000
14519SI     SI114519   4.621   8.804   0.745  0.0000  0.0000  0.0000
14520SI     SI114520   1.419   6.507   0.627  0.0000  0.0000  0.0000
14521SI     SI114521   1.019   9.128   8.543  0.0000  0.0000  0.0000
14522SI     SI114522   7.064   7.775   1.004  0.0000  0.0000  0.0000
14523SI     SI114523   2.639   9.145   0.605  0.0000  0.0000  0.0000
14524SI     SI114524   9.483   6.049   8.486  0.0000  0.0000  0.0000
14525SI     SI114525   4.342   7.590   9.215  0.0000  0.0000  0.0000
14526SI     SI114526   6.632   2.715   9.025  0.0000  0.0000  0.0000
14527SI     SI114527   4.238   8.445   9.506  0.0000  0.0000  0.0000
14528SI     SI114528   7.650   5.256   8.646  0.0000  0.0000  0.0000
14529SI     SI114529   1.273   6.030   0.716  0.0000  0.0000  0.0000
14530SI     SI114530   2.776   1.060   8.777  0.0000  0.0000  0.0000
14531SI     SI114531   2.140   1.073   1.300  0.0000  0.0000  0.0000
14532SI     SI114532   2.608   6.888   1.269  0.0000  0.0000  0.0000
14533SI     SI114533   7.550   8.210   1.005  0.0000  0.0000  0.0000
14534SI     SI114534   5.440   4.217   0.140  0.0000  0.0000  0.0000
14535SI     SI114535   3.950   0.229   0.912  0.0000  0.0000  0.0000
14536SI     SI114536   0.974   6.919   1.015  0.0000  0.0000  0.0000
14537SI     SI114537   6.985   3.402   0.012  0.0000  0.0000  0.0000
14538SI     SI114538   2.949   4.011   8.883  0.0000  0.0000  0.0000
14539SI     SI114539   3.930   8.838   9.341  0.0000  0.0000  0.0000
14540SI     SI114540   3.998   4.868   9.326  0.0000  0.0000  0.0000
14541SI     SI114541   8.987   5.269   1.000  0.0000  0.0000  0.0000
14542SI     SI114542   2.158   5.273   9.333  0.0000  0.0000  0.0000
14543SI     SI114543   9.279   7.472   9.174  0.0000  0.0000  0.0000
14544SI     SI114544   9.169   4.316   1.063  0.0000  0.0000  0.0000
14545SI     SI114545   2.540   5.104   1.125  0.0000  0.0000  0.0000
14546SI     SI114546   9.352   3.386   0.804  0.0000  0.0000  0.0000
14547SI     SI114547   3.699   8.723   0.200  0.0000  0.0000  0.0000
14548SI     SI114548   4.305   6.501   0.767  0.0000  0.0000  0.0000
14549SI     SI114549   7.790   1.724   0.602  0.0000  0.0000  0.0000
14550SI     SI114550   1.345   5.905   0.256  0.0000  0.0000  0.0000
14551SI     SI114551   6.003   1.054   9.351  0.0000  0.0000  0.0000
14552SI     SI114552   1.141   1.761   0.223  0.0000  0.0000  0.0000
14553SI     SI114553   0.264   4.436   1.394  0.0000  0.0000  0.0000
14554SI     SI114554   1.895   7.116   1.162  0.0000  0.0000  0.0000
14555SI     SI114555   4.660   5.773   8.807  0.0000  0.0000  0.0000
14556SI     SI114556   0.383   7.766   8.618  0.0000  0.0000  0.0000
14557SI     SI114557   3.729   4.787   0.539  0.0000  0.0000  0.0000
14558SI     SI114558   9.387   3.111   0.955  0.0000  0.0000  0.0000
14559SI     SI114559   2.271   7.953   0.832  0.0000  0.0000  0.0000
14560SI     SI114560   1.749   2.201   0.046  0.0000  0.0000  0.0000
14561SI     SI114561   7.609   0.999   0.643  0.0000  0.0000  0.0000
14562SI     SI114562   9.248   2.913   8.728  0.0000  0.0000  0.0000
14563SI     SI114563   2.752   1.268   9.460  0.0000  0.0000  0.0000
14564SI     SI114564   5.757   5.335   0.885  0.0000  0.0000  0.0000
14565SI     SI114565   8.915   8.592   8.680  0.0000  0.0000  0.0000
14566SI     SI114566   5.913   0.703   0.346  0.0000  0.0000  0.0000
14567SI     SI114567   3.047   6.718   0.475  0.0000  0.0000  0.0000
14568SI     SI114568   4.773   1.327   9.319  0.0000  0.0000  0.0000
14569SI     SI114569   8.762   6.636   8.877  0.0000  0.0000  0.0000
14570SI     SI114570   8.976   3.553   9.308  0.0000  0.0000  0.0000
14571SI     SI114571   1.169   0.296   8.823  0.0000  0.0000  0.0000
14572SI     SI114572   8.891   8.840   8.518  0.0000  0.0000  0.0000
14573SI     SI114573   2.524   4.135   0.195  0.0000  0.0000  0.0000
14574SI     SI114574   2.997   0.742   8.242  0.0000  0.0000  0.0000
14575SI     SI114575   2.080   4.453   1.332  0.0000  0.0000  0.0000
14576SI     SI114576   5.153   1.801   0.305  0.0000  0.0000  0.0000
14577SI     SI114577   5.210   0.219   1.127  0.0000  0.0000  0.0000
14578SI     SI114578   3.775   5.154   9.039  0.0000  0.0000  0.0000
14579SI     SI114579   5.545   5.982   8.911  0.0000  0.0000  0.0000
14580SI     SI114580   0.567   6.660   1.261  0.0000  0.0000  0.0000
14581SI     SI114581   5.622   3.571   0.646  0.0000  0.0000  0.0000
14582SI     SI114582   5.910   9.529   9.055  0.0000  0.0000  0.0000
14583SI     SI114583   8.183   2.760   9.120  0.0000  0.0000  0.0000
14584SI     SI114584   6.764   6.794   9.177  0.0000  0.0000  0.0000
14585SI     SI114585   4.212   2.475   8.457  0.0000  0.0000  0.0000
14586SI     SI114586   7.428   3.551   0.722  0.0000  0.0000  0.0000
14587SI     SI114587   9.580   0.111   8.380  0.0000  0.0000  0.0000
14588SI     SI114588   3.916   0.944   8.656  0.0000  0.0000  0.0000
14589SI     SI114589   0.987   3.459   8.745  0.0000  0.0000  0.0000
14590SI     SI114590   1.886   5.219   9.192  0.0000  0.0000  0.0000
14591SI     SI114591   2.955   0.483   8.988  0.0000  0.0000  0.0000
14592SI     SI114592   7.410   7.382   8.467  0.0000  0.0000  0.0000
14593SI     SI114593   7.514   9.496   9.003  0.0000  0.0000  0.0000
14594SI     SI114594   1.884   0.029   8.742  0.0000  0.0000  0.0000
14595SI     SI114595   2.616   8.908   9.514  0.0000  0.0000  0.0000
14596SI     SI114596   5.484   7.200   9.384  0.0000  0.0000  0.0000
14597SI     SI114597   8.011   3.005   9.190  0.0000  0.0000  0.0000
14598SI     SI114598   6.678   3.897   1.122  0.0000  0.0000  0.0000
14599SI     SI114599   3.030   8.976   0.493  0.0000  0.0000  0.0000
14600SI     SI114600   6.967   8.981   1.193  0.0000  0.0000  0.0000
14601SI     SI114601   7.849   3.513   0.453  0.0000  0.0000  0.0000
14602SI     SI114602   0.545   5.091   0.406  0.0000  0.0000  0.0000
14603SI     SI114603   0.853   4.849   8.686  0.0000  0.0000  0.0000
14604SI     SI114604   7.211   8.226   9.084  0.0000  0.0000  0.0000
14605SI     SI114605   4.936   0.591   0.278  0.0000  0.0000  0.0000
14606SI     SI114606   1.513   1.119   9.431  0.0000  0.0000  0.0000
14607SI     SI114607   5.847   1.974   0.854  0.0000  0.0000  0.0000
14608SI     SI114608   3.658   3.247   9.283  0.0000  0.0000  0.0000
14609SI     SI114609   0.765   2.814   0.010  0.0000  0.0000  0.0000
14610SI     SI114610   0.357   4.034   0.798  0.0000  0.0000  0.0000
14611SI     SI114611   8.985   6.158   8.808  0.0000  0.0000  0.0000
14612SI     SI114612   2.070   7.012   8.849  0.0000  0.0000  0.0000
14613SI     SI114613   3.357   2.387   8.862  0.0000  0.0000  0.0000
14614SI     SI114614   6.679   8.383   0.490  0.0000  0.0000  0.0000
14615SI     SI114615   7.546   1.533   8.760  0.0000  0.0000  0.0000
14616SI     SI114616   3.044   2.722   0.686  0.0000  0.0000  0.0000
14617SI     SI114617   2.672   1.005   9.295  0.0000  0.0000  0.0000
14618SI     SI114618   0.570   4.545   0.285  0.0000  0.0000  0.0000
14619SI     SI114619   8.382   4.766   9.019  0.0000  0.0000  0.0000
14620SI     SI114620   6.117   2.307   9.015  0.0000  0.0000  0.0000
14621SI     SI114621   9.060   0.372   0.800  0.0000  0.0000  0.0000
14622SI     SI114622   2.118   2.292   0.819  0.0000  0.0000  0.0000
14623SI     SI114623   7.310   1.655   9.495  0.0000  0.0000  0.0000
14624SI     SI114624   0.059   9.498   0.909  0.0000  0.0000  0.0000
14625SI     SI114625   2.892   4.205   0.218  0.0000  0.0000  0.0000
14626SI     SI114626   7.482   4.579   9.021  0.0000  0.0000  0.0000
14627SI     SI114627   2.366   8.972   9.055  0.0000  0.0000  0.0000
14628SI     SI114628   2.940   7.195   9.131  0.0000  0.0000  0.0000
14629SI     SI114629   2.668   6.921   9.359  0.0000  0.0000  0.0000
14630SI     SI114630   1.880   5.750   8.289  0.0000  0.0000  0.0000
14631SI     SI114631   1.661   7.962   9.286  0.0000  0.0000  0.0000
14632SI     SI114632   5.999   4.196   9.045  0.0000  0.0000  0.0000
14633SI     SI114633   9.547   0.922   0.520  0.0000  0.0000  0.0000
14634SI     SI114634   8.132   1.040   0.742  0.0000  0.0000  0.0000
14635SI     SI114635   3.077   8.343   0.508  0.0000  0.0000  0.0000
14636SI     SI114636   8.785   4.505   1.073  0.0000  0.0000  0.0000
14637SI     SI114637   4.711   4.921   9.173  0.0000  0.0000  0.0000
14638SI     SI114638   3.124   4.979   0.195  0.0000  0.0000  0.0000
14639SI     SI114639   3.215   5.807   8.825  0.0000  0.0000  0.0000
14640SI     SI114640   2.873   0.496   0.643  0.0000  0.0000  0.0000
14641SI     SI114641   6.606   0.776   0.628  0.0000  0.0000  0.0000
14642SI     SI114642   2.326   5.433   0.590  0.0000  0.0000  0.0000
14643SI     SI114643   2.115   0.047   0.986  0.0000  0.0000  0.0000
14644SI     SI114644   9.355   3.875   0.809  0.0000  0.0000  0.0000
14645SI     SI114645   1.440   2.853   0.139  0.0000  0.0000  0.0000
14646SI     SI114646   1.225   1.931   9.347  0.0000  0.0000  0.0000
14647SI     SI114647   1.510   5.449   0.057  0.0000  0.0000  0.0000
14648SI     SI114648   2.618   8.477   8.328  0.0000  0.0000  0.0000
14649SI     SI114649   1.904   7.871   8.540  0.0000  0.0000  0.0000
14650SI     SI114650   8.287   3.054   8.733  0.0000  0.0000  0.0000
14651SI     SI114651   4.853   0.684   9.046  0.0000  0.0000  0.0000
14652SI     SI114652   3.246   7.445   0.196  0.0000  0.0000  0.0000
14653SI     SI114653   1.459   8.679   0.743  0.0000  0.0000  0.0000
14654SI     SI114654   5.602   4.022   8.573  0.0000  0.0000  0.0000
14655SI     SI114655   6.803   6.344   9.309  0.0000  0.0000  0.0000
14656SI     SI114656   0.065   9.294   0.477  0.0000  0.0000  0.0000
14657SI     SI114657   8.473   2.353   9.076  0.0000  0.0000  0.0000
14658SI     SI114658   4.503   0.617   9.413  0.0000  0.0000  0.0000
14659SI     SI114659   7.980   1.926   0.212  0.0000  0.0000  0.0000
14660SI     SI114660   0.933   8.216   1.141  0.0000  0.0000  0.0000
14661SI     SI114661   7.643   0.136   0.834  0.0000  0.0000  0.0000
14662SI     SI114662   1.056   3.018   8.976  0.0000  0.0000  0.0000
14663SI     SI114663   5.897   8.446   0.269  0.0000  0.0000  0.0000
14664SI     SI114664   5.487   0.249   0.348  0.0000  0.0000  0.0000
14665SI     SI114665   5.311   2.012   0.759  0.0000  0.0000  0.0000
14666SI     SI114666   8.740   1.075   0.707  0.0000  0.0000  0.0000
14667SI     SI114667   7.226   6.146   0.582  0.0000  0.0000  0.0000
14668SI     SI114668   6.812   7.045   8.818  0.0000  0.0000  0.0000
14669SI     SI114669   5.366   9.367   9.002  0.0000  0.0000  0.0000
14670SI     SI114670   9.144   8.246   8.727  0.0000  0.0000  0.0000
14671SI     SI114671   6.259   6.719   9.130  0.0000  0.0000  0.0000
14672SI     SI114672   5.128   5.795   9.204  0.0000  0.0000  0.0000
14673SI     SI114673   8.959   1.468   8.444  0.0000  0.0000  0.0000
14674SI     SI114674   2.053   9.509   0.167  0.0000  0.0000  0.0000
14675SI     SI114675   6.370   5.789   0.489  0.0000  0.0000  0.0000
14676SI     SI114676   2.447   0.775   0.535  0.0000  0.0000  0.0000
14677SI     SI114677   1.598   9.494   1.330  0.0000  0.0000  0.0000
14678SI     SI114678   6.171   7.422   8.835  0.0000  0.0000  0.0000
14679SI     SI114679   2.591   5.744   0.007  0.0000  0.0000  0.0000
14680SI     SI114680   2.221   3.272   9.469  0.0000  0.0000  0.0000
14681SI     SI114681   8.462   6.674   9.235  0.0000  0.0000  0.0000
14682SI     SI114682   5.992   0.169   0.465  0.0000  0.0000  0.0000
14683SI     SI114683   8.937   3.322   0.073  0.0000  0.0000  0.0000
14684SI     SI114684   9.402   4.927   0.162  0.0000  0.0000  0.0000
14685SI     SI114685   0.617   6.470   0.059  0.0000  0.0000  0.0000
14686SI     SI114686   8.796   8.395   8.466  0.0000  0.0000  0.0000
14687SI     SI114687   3.877   5.318   0.351  0.0000  0.0000  0.0000
14688SI     SI114688   8.772   1.145   1.148  0.0000  0.0000  0.0000
14689SI     SI114689   5.844   0.968   9.593  0.0000  0.0000  0.0000
14690SI     SI114690   3.104   7.679   8.503  0.0000  0.0000  0.0000
14691SI     SI114691   7.734   6.505   9.316  0.0000  0.0000  0.0000
14692SI     SI114692   3.757   1.198   9.054  0.0000  0.0000  0.0000
14693SI     SI114693   3.956   0.645   9.503  0.0000  0.0000  0.0000
14694SI     SI114694   6.985   6.982   9.065  0.0000  0.0000  0.0000
14695SI     SI114695   7.054   6.542   0.959  0.0000  0.0000  0.0000
14696SI     SI114696   5.868   2.882   0.219  0.0000  0.0000  0.0000
14697SI     SI114697   6.197   4.547   8.296  0.0000  0.0000  0.0000
14698SI     SI114698   1.319   3.943   0.839  0.0000  0.0000  0.0000
14699SI     SI114699   8.848   7.163   0.693  0.0000  0.0000  0.0000
14700SI     SI114700   4.640   0.552   0.920  0.0000  0.0000  0.0000
14701SI     SI114701   7.535   5.431   8.852  0.0000  0.0000  0.0000
14702SI     SI114702   8.940   2.550   9.053  0.0000  0.0000  0.0000
14703SI     SI114703   4.986   5.070   9.205  0.0000  0.0000  0.0000
14704SI     SI114704   4.618   8.460   9.013  0.0000  0.0000  0.0000
14705SI     SI114705   3.017   1.948   1.099  0.0000  0.0000  0.0000
14706SI     SI114706   6.861   1.653   1.030  0.0000  0.0000  0.0000
14707SI     SI114707   3.720   8.801   1.012  0.0000  0.0000  0.0000
14708SI     SI114708   7.240   2.565   8.625  0.0000  0.0000  0.0000
14709SI     SI114709   3.238   3.515   8.833  0.0000  0.0000  0.0000
14710SI     SI114710   1.660   5.190   0.008  0.0000  0.0000  0.0000
14711SI     SI114711   5.043   9.373   9.297  0.0000  0.0000  0.0000
14712SI     SI114712   9.283   6.459   0.663  0.0000  0.0000  0.0000
14713SI     SI114713   7.819   1.281   0.153  0.0000  0.0000  0.0000
14714SI     SI114714   4.338   7.028   0.899  0.0000  0.0000  0.0000
14715SI     SI114715   7.812   6.484   0.193  0.0000  0.0000  0.0000
14716SI     SI114716   0.472   0.404   9.101  0.0000  0.0000  0.0000
14717SI     SI114717   8.124   5.058   9.351  0.0000  0.0000  0.0000
14718SI     SI114718   0.255   6.174   9.334  0.0000  0.0000  0.0000
14719SI     SI114719   3.966   1.651   1.207  0.0000  0.0000  0.0000
14720SI     SI114720   5.301   4.588   1.345  0.0000  0.0000  0.0000
14721SI     SI114721   1.673   7.335   1.136  0.0000  0.0000  0.0000
14722SI     SI114722   4.665   1.074   9.164  0.0000  0.0000  0.0000
14723SI     SI114723   0.258   7.466   8.345  0.0000  0.0000  0.0000
14724SI     SI114724   7.569   7.178   9.018  0.0000  0.0000  0.0000
14725SI     SI114725   8.967   4.631   8.613  0.0000  0.0000  0.0000
14726SI     SI114726   0.844   0.154   0.656  0.0000  0.0000  0.0000
14727SI     SI114727   1.404   4.800   0.869  0.0000  0.0000  0.0000
14728SI     SI114728   4.715   0.476   8.604  0.0000  0.0000  0.0000
14729SI     SI114729   4.657   9.262   9.511  0.0000  0.0000  0.0000
14730SI     SI114730   1.600   4.754   9.297  0.0000  0.0000  0.0000
14731SI     SI114731   3.816   6.858   0.895  0.0000  0.0000  0.0000
14732SI     SI114732   7.092   2.217   9.005  0.0000  0.0000  0.0000
14733SI     SI114733   1.029   4.961   0.954  0.0000  0.0000  0.0000
14734SI     SI114734   5.239   1.445   8.344  0.0000  0.0000  0.0000
14735SI     SI114735   3.811   1.328   0.580  0.0000  0.0000  0.0000
14736SI     SI114736   8.623   2.929   0.097  0.0000  0.0000  0.0000
14737SI     SI114737   2.939   1.712   9.422  0.0000  0.0000  0.0000
14738SI     SI114738   8.563   2.908   0.791  0.0000  0.0000  0.0000
14739SI     SI114739   4.730   0.793   9.301  0.0000  0.0000  0.0000
14740SI     SI114740   8.818   6.557   0.913  0.0000  0.0000  0.0000
14741SI     SI114741   1.305   2.695   0.611  0.0000  0.0000  0.0000
14742SI     SI114742   2.880   4.027   9.391  0.0000  0.0000  0.0000
14743SI     SI114743   1.871   9.314   9.599  0.0000  0.0000  0.0000
14744SI     SI114744   7.606   7.903   0.103  0.0000  0.0000  0.0000
14745SI     SI114745   6.336   9.493   8.793  0.0000  0.0000  0.0000
14746SI     SI114746   0.829   4.759   0.009  0.0000  0.0000  0.0000
14747SI     SI114747   6.419   9.253   1.076  0.0000  0.0000  0.0000
14748SI     SI114748   7.983   1.842   9.221  0.0000  0.0000  0.0000
14749SI     SI114749   1.949   5.737   0.365  0.0000  0.0000  0.0000
14750SI     SI114750   6.852   9.047   8.376  0.0000  0.0000  0.0000
14751SI     SI114751   1.448   5.386   8.399  0.0000  0.0000  0.0000
14752SI     SI114752   4.907   2.768   0.925  0.0000  0.0000  0.0000
14753SI     SI114753   0.707   1.421   8.908  0.0000  0.0000  0.0000
14754SI     SI114754   5.879   7.130   0.721  0.0000  0.0000  0.0000
14755SI     SI114755   6.556   6.217   8.594  0.0000  0.0000  0.0000
14756SI     SI114756   3.546   6.401   9.242  0.0000  0.0000  0.0000
14757SI     SI114757   8.252   6.796   8.431  0.0000  0.0000  0.0000
14758SI     SI114758   3.067   8.361   8.797  0.0000  0.0000  0.0000
14759SI     SI114759   7.326   4.614   1.012  0.0000  0.0000  0.0000
14760SI     SI114760   2.658   5.641   9.325  0.0000  0.0000  0.0000
14761SI     SI114761   9.496   5.973   8.795  0.0000  0.0000  0.0000
14762SI     SI114762   1.872   9.061   0.416  0.0000  0.0000  0.0000
14763SI     SI114763   4.919   9.562   9.521  0.0000  0.0000  0.0000
14764SI     SI114764   1.778   4.537   9.211  0.0000  0.0000  0.0000
14765SI     SI114765   3.942   8.608   8.420  0.0000  0.0000  0.0000
14766SI     SI114766   4.274   1.568   8.488  0.0000  0.0000  0.0000
14767SI     SI114767   2.669   2.752   8.643  0.0000  0.0000  0.0000
14768SI     SI114768   1.697   4.062   8.476  0.0000  0.0000  0.0000
14769SI     SI114769   4.247   9.313   9.176  0.0000  0.0000  0.0000
14770SI     SI114770   8.015   8.892   0.081  0.0000  0.0000  0.0000
14771SI     SI114771   6.146   3.555   1.185  0.0000  0.0000  0.0000
14772SI     SI114772   9.402   1.378   0.855  0.0000  0.0000  0.0000
14773SI     SI114773   0.902   2.730   9.353  0.0000  0.0000  0.0000
14774SI     SI114774   7.134   3.512   8.676  0.0000  0.0000  0.0000
14775SI     SI114775   4.208   7.376   0.561  0.0000  0.0000  0.0000
14776SI     SI114776   7.871   7.524   0.775  0.0000  0.0000  0.0000
14777SI     SI114777   0.781   7.995   0.680  0.0000  0.0000  0.0000
14778SI     SI114778   7.535   8.896   0.373  0.0000  0.0000  0.0000
14779SI     SI114779   6.157   9.430   0.681  0.0000  0.0000  0.0000
14780SI     SI114780   6.248   3.907   0.843  0.0000  0.0000  0.0000
14781SI     SI114781   3.761   0.055   0.552  0.0000  0.0000  0.0000
14782SI     SI114782   8.957   2.160   8.512  0.0000  0.0000  0.0000
14783SI     SI114783   7.743   5.040   0.590  0.0000  0.0000  0.0000
14784SI     SI114784   7.834   3.011   8.328  0.0000  0.0000  0.0000
14785SI     SI114785   0.063   1.509   8.518  0.0000  0.0000  0.0000
14786SI     SI114786   6.430   9.512   9.247  0.0000  0.0000  0.0000
14787SI     SI114787   9.229   0.538   8.297  0.0000  0.0000  0.0000
14788SI     SI114788   9.425   7.674   0.692  0.0000  0.0000  0.0000
14789SI     SI114789   5.046   7.968   0.018  0.0000  0.0000  0.0000
14790SI     SI114790   4.617   1.404   0.454  0.0000  0.0000  0.0000
14791SI     SI114791   7.625   3.971   8.536  0.0000  0.0000  0.0000
14792SI     SI114792   4.985   0.413   8.705  0.0000  0.0000  0.0000
14793SI     SI114793   0.543   2.908   8.757  0.0000  0.0000  0.0000
14794SI     SI114794   8.981   3.058   0.467  0.0000  0.0000  0.0000
14795SI     SI114795   6.455   5.272   9.297  0.0000  0.0000  0.0000
14796SI     SI114796   3.624   4.118   9.004  0.0000  0.0000  0.0000
14797SI     SI114797   6.019   8.793   1.100  0.0000  0.0000  0.0000
14798SI     SI114798   6.175   8.998   8.416  0.0000  0.0000  0.0000
14799SI     SI114799   0.876   9.482   0.916  0.0000  0.0000  0.0000
14800SI     SI114800   0.794   8.653   8.644  0.0000  0.0000  0.0000
14801SI     SI114801   3.614   2.864   9.049  0.0000  0.0000  0.0000
14802SI     SI114802   6.015   5.172   0.381  0.0000  0.0000  0.0000
14803SI     SI114803   8.354   4.574   1.035  0.0000  0.0000  0.0000
14804SI     SI114804   8.276   6.687   8.835  0.0000  0.0000  0.0000
14805SI     SI114805   1.708   3.076   0.990  0.0000  0.0000  0.0000
14806SI     SI114806   3.788   1.310   9.351  0.0000  0.0000  0.0000
14807SI     SI114807   2.557   8.073   0.801  0.0000  0.0000  0.0000
14808SI     SI114808   0.063   4.140   8.849  0.0000  0.0000  0.0000
14809SI     SI114809   7.244   7.672   0.373  0.0000  0.0000  0.0000
14810SI     SI114810   4.043   1.079   8.400  0.0000  0.0000  0.0000
14811SI     SI114811   5.056   4.541   8.836  0.0000  0.0000  0.0000
14812SI     SI114812   8.045   0.890   1.287  0.0000  0.0000  0.0000
14813SI     SI114813   9.568   8.572   0.317  0.0000  0.0000  0.0000
14814SI     SI114814   5.276   4.317   0.892  0.0000  0.0000  0.0000
14815SI     SI114815   2.851   1.065   1.045  0.0000  0.0000  0.0000
14816SI     SI114816   5.530   0.128   8.307  0.0000  0.0000  0.0000
14817SI     SI114817   5.467   0.086   1.202  0.0000  0.0000  0.0000
14818SI     SI114818   1.582   2.813   0.682  0.0000  0.0000  0.0000
14819SI     SI114819   0.281   8.513   8.967  0.0000  0.0000  0.0000
14820SI     SI114820   8.569   0.362   1.210  0.0000  0.0000  0.0000
14821SI     SI114821   8.341   9.241   1.076  0.0000  0.0000  0.0000
14822SI     SI114822   7.639   0.427   9.149  0.0000  0.0000  0.0000
14823SI     SI114823   3.935   1.546   0.736  0.0000  0.0000  0.0000
14824SI     SI114824   4.154   4.072   8.547  0.0000  0.0000  0.0000
14825SI     SI114825   4.901   5.339   9.096  0.0000  0.0000  0.0000
14826SI     SI114826   3.116   2.093   8.559  0.0000  0.0000  0.0000
14827SI     SI114827   4.378   6.499   8.474  0.0000  0.0000  0.0000
14828SI     SI114828   6.695   4.283   9.215  0.0000  0.0000  0.0000
14829SI     SI114829   8.543   5.507   8.253  0.0000  0.0000  0.0000
14830SI     SI114830   6.116   4.803   8.680  0.0000  0.0000  0.0000
14831SI     SI114831   7.709   1.827   0.321  0.0000  0.0000  0.0000
14832SI     SI114832   1.397   8.064   0.018  0.0000  0.0000  0.0000
14833SI     SI114833   0.180   3.035   1.170  0.0000  0.0000  0.0000
14834SI     SI114834   9.339   4.690   9.338  0.0000  0.0000  0.0000
14835SI     SI114835   6.813   2.033   8.371  0.0000  0.0000  0.0000
14836SI     SI114836   2.749   4.235   8.951  0.0000  0.0000  0.0000
14837SI     SI114837   3.711   6.313   8.849  0.0000  0.0000  0.0000
14838SI     SI114838   9.067   0.847   0.536  0.0000  0.0000  0.0000
14839SI     SI114839   5.525   6.051   9.188  0.0000  0.0000  0.0000
14840SI     SI114840   6.604   6.451   8.389  0.0000  0.0000  0.0000
14841SI     SI114841   8.636   0.387   0.486  0.0000  0.0000  0.0000
14842SI     SI114842   1.828   9.402   8.933  0.0000  0.0000  0.0000
14843SI     SI114843   5.291   5.509   0.314  0.0000  0.0000  0.0000
14844SI     SI114844   2.038   0.420   9.024  0.0000  0.0000  0.0000
14845SI     SI114845   3.917   4.471   8.816  0.0000  0.0000  0.0000
14846SI     SI114846   5.572   3.905   1.122  0.0000  0.0000  0.0000
14847SI     SI114847   9.395   3.648   9.290  0.0000  0.0000  0.0000
14848SI     SI114848   4.172   7.193   9.235  0.0000  0.0000  0.0000
14849SI     SI114849   2.924   6.586   8.464  0.0000  0.0000  0.0000
14850SI     SI114850   7.149   2.929   0.012  0.0000  0.0000  0.0000
14851SI     SI114851   7.668   6.355   0.447  0.0000  0.0000  0.0000
14852SI     SI114852   8.347   0.764   8.614  0.0000  0.0000  0.0000
14853SI     SI114853   1.031   2.344   8.609  0.0000  0.0000  0.0000
14854SI     SI114854   2.800   1.006   0.320  0.0000  0.0000  0.0000
14855SI     SI114855   6.370   0.442   0.385  0.0000  0.0000  0.0000
14856SI     SI114856   1.150   5.265   9.241  0.0000  0.0000  0.0000
14857SI     SI114857   1.865   9.421   8.507  0.0000  0.0000  0.0000
14858SI     SI114858   8.551   8.153   0.757  0.0000  0.0000  0.0000
14859SI     SI114859   0.629   8.214   1.198  0.0000  0.0000  0.0000
14860SI     SI114860   9.279   0.276   8.714  0.0000  0.0000  0.0000
14861SI     SI114861   6.256   0.164   0.297  0.0000  0.0000  0.0000
14862SI     SI114862   8.592   7.145   9.085  0.0000  0.0000  0.0000
14863SI     SI114863   8.075   6.619   0.557  0.0000  0.0000  0.0000
14864SI     SI114864   7.813   0.454   1.441  0.0000  0.0000  0.0000
14865SI     SI114865   3.573   0.292   0.625  0.0000  0.0000  0.0000
14866SI     SI114866   9.162   3.606   9.075  0.0000  0.0000  0.0000
14867SI     SI114867   3.755   9.460   8.320  0.0000  0.0000  0.0000
14868SI     SI114868   2.599   1.996   9.152  0.0000  0.0000  0.0000
14869SI     SI114869   5.117   6.666   1.050  0.0000  0.0000  0.0000
14870SI     SI114870   2.411   7.038   9.261  0.0000  0.0000  0.0000
14871SI     SI114871   6.997   1.248   0.186  0.0000  0.0000  0.0000
14872SI     SI114872   6.725   7.764   8.504  0.0000  0.0000  0.0000
14873SI     SI114873   4.621   2.473   0.021  0.0000  0.0000  0.0000
14874SI     SI114874   7.666   6.977   8.523  0.0000  0.0000  0.0000
14875SI     SI114875   5.296   5.319   1.077  0.0000  0.0000  0.0000
14876SI     SI114876   6.914   8.170   0.949  0.0000  0.0000  0.0000
14877SI     SI114877   7.507   2.308   0.682  0.0000  0.0000  0.0000
14878SI     SI114878   7.132   8.896   8.408  0.0000  0.0000  0.0000
14879SI     SI114879   0.013   2.532   1.057  0.0000  0.0000  0.0000
14880SI     SI114880   5.260   0.913   9.122  0.0000  0.0000  0.0000
14881SI     SI114881   5.888   5.562   1.032  0.0000  0.0000  0.0000
14882SI     SI114882   0.780   4.965   0.235  0.0000  0.0000  0.0000
14883SI     SI114883   5.659   0.703   0.536  0.0000  0.0000  0.0000
14884SI     SI114884   2.006   5.235   1.127  0.0000  0.0000  0.0000
14885SI     SI114885   5.162   3.418   0.679  0.0000  0.0000  0.0000
14886SI     SI114886   6.681   8.171   9.028  0.0000  0.0000  0.0000
14887SI     SI114887   6.432   3.013   9.233  0.0000  0.0000  0.0000
14888SI     SI114888   9.140   1.911   8.593  0.0000  0.0000  0.0000
14889SI     SI114889   9.093   1.912   0.132  0.0000  0.0000  0.0000
14890SI     SI114890   6.875   6.037   1.313  0.0000  0.0000  0.0000
14891SI     SI114891   9.027   3.010   8.519  0.0000  0.0000  0.0000
14892SI     SI114892   0.771   5.112   1.039  0.0000  0.0000  0.0000
14893SI     SI114893   6.141   5.209   0.660  0.0000  0.0000  0.0000
14894SI     SI114894   1.093   2.326   0.978  0.0000  0.0000  0.0000
14895SI     SI114895   4.584   5.744   1.142  0.0000  0.0000  0.0000
14896SI     SI114896   1.483   7.906   8.661  0.0000  0.0000  0.0000
14897SI     SI114897   5.647   5.733   1.163  0.0000  0.0000  0.0000
14898SI     SI114898   6.982   4.026   0.227  0.0000  0.0000  0.0000
14899SI     SI114899   1.233   2.864   0.356  0.0000  0.0000  0.0000
14900SI     SI114900   5.059   9.368   8.660  0.0000  0.0000  0.0000
14901SI     SI114901   6.517   1.206   0.218  0.0000  0.0000  0.0000
14902SI     SI114902   2.253   0.573   8.577  0.0000  0.0000  0.0000
14903SI     SI114903   0.136   7.142   9.291  0.0000  0.0000  0.0000
14904SI     SI114904   3.646   9.172   0.499  0.0000  0.0000  0.0000
14905SI     SI114905   6.740   6.013   8.426  0.0000  0.0000  0.0000
14906SI     SI114906   6.420   6.876   9.586  0.0000  0.0000  0.0000
14907SI     SI114907   2.741   7.210   0.572  0.0000  0.0000  0.0000
14908SI     SI114908   2.816   3.361   0.739  0.0000  0.0000  0.0000
14909SI     SI114909   8.921   7.682   1.310  0.0000  0.0000  0.0000
14910SI     SI114910   2.012   2.191   9.482  0.0000  0.0000  0.0000
14911SI     SI114911   9.076   1.847   8.896  0.0000  0.0000  0.0000
14912SI     SI114912   1.665   1.639   8.804  0.0000  0.0000  0.0000
14913SI     SI114913   9.452   0.971   1.069  0.0000  0.0000  0.0000
14914SI     SI114914   7.524   7.281   0.594  0.0000  0.0000  0.0000
14915SI     SI114915   2.587   0.506   0.516  0.0000  0.0000  0.0000
14916SI     SI114916   0.227   1.751   0.187  0.0000  0.0000  0.0000
14917SI     SI114917   7.017   6.028   1.036  0.0000  0.0000  0.0000
14918SI     SI114918   1.497   3.847   1.329  0.0000  0.0000  0.0000
14919SI     SI114919   2.728   5.304   8.491  0.0000  0.0000  0.0000
14920SI     SI114920   4.929   5.548   8.427  0.0000  0.0000  0.0000
14921SI     SI114921   3.959   2.011   9.412  0.0000  0.0000  0.0000
14922SI     SI114922   5.547   1.510   1.212  0.0000  0.0000  0.0000
14923SI     SI114923   4.903   6.974   8.631  0.0000  0.0000  0.0000
14924SI     SI114924   8.795   9.438   8.342  0.0000  0.0000  0.0000
14925SI     SI114925   7.115   7.613   9.369  0.0000  0.0000  0.0000
14926SI     SI114926   7.986   1.889   0.776  0.0000  0.0000  0.0000
14927SI     SI114927   1.999   5.708   9.472  0.0000  0.0000  0.0000
14928SI     SI114928   0.281   8.199   9.431  0.0000  0.0000  0.0000
14929SI     SI114929   0.288   4.763   0.529  0.0000  0.0000  0.0000
14930SI     SI114930   3.003   7.488   0.777  0.0000  0.0000  0.0000
14931SI     SI114931   0.755   3.614   0.079  0.0000  0.0000  0.0000
14932SI     SI114932   6.594   1.679   8.973  0.0000  0.0000  0.0000
14933SI     SI114933   8.879   0.995   8.303  0.0000  0.0000  0.0000
14934SI     SI114934   1.424   6.037   8.329  0.0000  0.0000  0.0000
14935SI     SI114935   2.210   5.883   9.324  0.0000  0.0000  0.0000
14936SI     SI114936   8.332   3.110   8.430  0.0000  0.0000  0.0000
14937SI     SI114937   2.182   7.656   9.197  0.0000  0.0000  0.0000
14938SI     SI114938   1.114   4.075   0.283  0.0000  0.0000  0.0000
14939SI     SI114939   6.477   9.325   9.016  0.0000  0.0000  0.0000
14940SI     SI114940   1.052   0.359   8.539  0.0000  0.0000  0.0000
14941SI     SI114941   8.377   2.046   9.446  0.0000  0.0000  0.0000
14942SI     SI114942   9.430   9.068   8.786  0.0000  0.0000  0.0000
14943SI     SI114943   7.051   0.909   9.440  0.0000  0.0000  0.0000
14944SI     SI114944   1.604   8.648   0.474  0.0000  0.0000  0.0000
14945SI     SI114945   0.597   9.577   0.381  0.0000  0.0000  0.0000
14946SI     SI114946   3.029   7.185   8.506  0.0000  0.0000  0.0000
14947SI     SI114947   4.086   8.225   0.800  0.0000  0.0000  0.0000
14948SI     SI114948   3.292   1.769   0.092  0.0000  0.0000  0.0000
14949SI     SI114949   7.328   3.898   9.202  0.0000  0.0000  0.0000
14950SI     SI114950   0.749   5.480   0.607  0.0000  0.0000  0.0000
14951SI     SI114951   8.642   9.501   1.065  0.0000  0.0000  0.0000
14952SI     SI114952   6.034   1.592   1.328  0.0000  0.0000  0.0000
14953SI     SI114953   2.030   3.387   0.320  0.0000  0.0000  0.0000
14954SI     SI114954   0.425   2.899   9.386  0.0000  0.0000  0.0000
14955SI     SI114955   3.757   9.051   8.546  0.0000  0.0000  0.0000
14956SI     SI114956   1.086   7.244   0.022  0.0000  0.0000  0.0000
14957SI     SI114957   2.972   0.147   8.431  0.0000  0.0000  0.0000
14958SI     SI114958   1.082   8.296   0.696  0.0000  0.0000  0.0000
14959SI     SI114959   3.036   0.979   9.493  0.0000  0.0000  0.0000
14960SI     SI114960   5.337   7.497   8.752  0.0000  0.0000  0.0000
14961SI     SI114961   1.712   3.740   0.635  0.0000  0.0000  0.0000
14962SI     SI114962   4.388   1.550   0.840  0.0000  0.0000  0.0000
14963SI     SI114963   3.052   6.937   8.998  0.0000  0.0000  0.0000
14964SI     SI114964   4.394   0.211   0.619  0.0000  0.0000  0.0000
14965SI     SI114965   5.882   3.980   8.662  0.0000  0.0000  0.0000
14966SI     SI114966   7.702   8.657   8.680  0.0000  0.0000  0.0000
14967SI     SI114967   7.924   1.675   0.974  0.0000  0.0000  0.0000
14968SI     SI114968   4.541   8.136   0.509  0.0000  0.0000  0.0000
14969SI     SI114969   1.332   6.798   0.616  0.0000  0.0000  0.0000
14970SI     SI114970   2.286   6.271   8.775  0.0000  0.0000  0.0000
14971SI     SI114971   6.269   6.645   0.124  0.0000  0.0000  0.0000
14972SI     SI114972   6.155   5.502   0.681  0.0000  0.0000  0.0000
14973SI     SI114973   4.103   7.599   0.136  0.0000  0.0000  0.0000
14974SI     SI114974   0.495   9.395   0.759  0.0000  0.0000  0.0000
14975SI     SI114975   8.858   7.789   8.453  0.0000  0.0000  0.0000
14976SI     SI114976   2.798   4.942   1.076  0.0000  0.0000  0.0000
14977SI     SI114977   6.133   3.370   9.096  0.0000  0.0000  0.0000
14978SI     SI114978   1.225   8.105   9.356  0.0000  0.0000  0.0000
14979SI     SI114979   1.909   8.539   0.958  0.0000  0.0000  0.0000
14980SI     SI114980   5.083   2.599   0.259  0.0000  0.0000  0.0000
14981SI     SI114981   5.718   6.500   9.156  0.0000  0.0000  0.0000
14982SI     SI114982   4.215   0.593   0.535  0.0000  0.0000  0.0000
14983SI     SI114983   2.752   2.534   9.261  0.0000  0.0000  0.0000
14984SI     SI114984   9.202   6.754   0.300  0.0000  0.0000  0.0000
14985SI     SI114985   4.020   0.218   0.149  0.0000  0.0000  0.0000
14986SI     SI114986   6.744   3.158   1.125  0.0000  0.0000  0.0000
14987SI     SI114987   4.464   6.670   8.717  0.0000  0.0000  0.0000
14988SI     SI114988   7.934   1.119   0.382  0.0000  0.0000  0.0000
14989SI     SI114989   2.887   3.672   1.264  0.0000  0.0000  0.0000
14990SI     SI114990   1.242   5.506   9.548  0.0000  0.0000  0.0000
14991SI     SI114991   6.878   0.771   8.816  0.0000  0.0000  0.0000
14992SI     SI114992   6.566   2.640   8.353  0.0000  0.0000  0.0000
14993SI     SI114993   2.952   9.501   8.821  0.0000  0.0000  0.0000
14994SI     SI114994   7.548   8.433   9.347  0.0000  0.0000  0.0000
14995SI     SI114995   6.946   3.727   1.142  0.0000  0.0000  0.0000
14996SI     SI114996   6.098   6.684   8.889  0.0000  0.0000  0.0000
14997SI     SI114997   2.852   1.167   8.492  0.0000  0.0000  0.0000
14998SI     SI114998   5.644   0.150   8.813  0.0000  0.0000  0.0000
14999SI     SI114999   5.174   2.272   9.366  0.0000  0.0000  0.0000
15000SI     SI115000   2.678   5.074   0.534  0.0000  0.0000  0.0000
15001SI     SI115001   4.056   6.570   8.715  0.0000  0.0000  0.0000
15002SI     SI115002   7.178   4.949   8.802  0.0000  0.0000  0.0000
15003SI     SI115003   3.455   6.270   0.402  0.0000  0.0000  0.0000
15004SI     SI115004   7.821   7.575   9.077  0.0000  0.0000  0.0000
15005SI     SI115005   8.135   1.231   0.977  0.0000  0.0000  0.0000
15006SI     SI115006   2.840   9.486   8.309  0.0000  0.0000  0.0000
15007SI     SI115007   7.349   7.532   9.529  0.0000  0.0000  0.0000
15008SI     SI115008   6.710   3.016   9.381  0.0000  0.0000  0.0000
15009SI     SI115009   1.833   0.516   1.351  0.0000  0.0000  0.0000
15010SI     SI115010   4.698   2.944   9.281  0.0000  0.0000  0.0000
15011SI     SI115011   8.699   5.079   9.513  0.0000  0.0000  0.0000
15012SI     SI115012   4.482   4.817   1.204  0.0000  0.0000  0.0000
15013SI     SI115013   7.814   0.855   0.448  0.0000  0.0000  0.0000
15014SI     SI115014   3.469   9.386   8.825  0.0000  0.0000  0.0000
15015SI     SI115015   0.130   4.331   9.394  0.0000  0.0000  0.0000
15016SI     SI115016   6.158   7.806   0.403  0.0000  0.0000  0.0000
15017SI     SI115017   8.158   7.769   8.709  0.0000  0.0000  0.0000
15018SI     SI115018   3.867   7.206   0.024  0.0000  0.0000  0.0000
15019SI     SI115019   1.168   0.731   0.044  0.0000  0.0000  0.0000
15020SI     SI115020   1.493   0.690   8.661  0.0000  0.0000  0.0000
15021SI     SI115021   6.019   7.513   0.735  0.0000  0.0000  0.0000
15022SI     SI115022   1.743   4.938   0.378  0.0000  0.0000  0.0000
15023SI     SI115023   8.840   2.514   0.959  0.0000  0.0000  0.0000
15024SI     SI115024   8.428   6.614   1.189  0.0000  0.0000  0.0000
15025SI     SI115025   4.656   3.929   9.183  0.0000  0.0000  0.0000
15026SI     SI115026   5.575   5.337   8.643  0.0000  0.0000  0.0000
15027SI     SI115027   5.445   8.469   0.555  0.0000  0.0000  0.0000
15028SI     SI115028   1.418   8.732   0.266  0.0000  0.0000  0.0000
15029SI     SI115029   9.162   9.235   0.033  0.0000  0.0000  0.0000
15030SI     SI115030   0.766   3.116   0.028  0.0000  0.0000  0.0000
15031SI     SI115031   8.962   8.965   9.277  0.0000  0.0000  0.0000
15032SI     SI115032   5.065   0.952   0.865  0.0000  0.0000  0.0000
15033SI     SI115033   8.669   1.468   8.371  0.0000  0.0000  0.0000
15034SI     SI115034   7.730   3.139   8.598  0.0000  0.0000  0.0000
15035SI     SI115035   6.467   4.181   9.046  0.0000  0.0000  0.0000
15036SI     SI115036   4.878   8.193   0.165  0.0000  0.0000  0.0000
15037SI     SI115037   1.518   6.523   9.269  0.0000  0.0000  0.0000
15038SI     SI115038   6.325   1.456   8.605  0.0000  0.0000  0.0000
15039SI     SI115039   6.207   4.601   1.175  0.0000  0.0000  0.0000
15040SI     SI115040   0.228   4.162   1.008  0.0000  0.0000  0.0000
15041SI     SI115041   0.143   3.711   8.808  0.0000  0.0000  0.0000
15042SI     SI115042   2.376   7.715   0.429  0.0000  0.0000  0.0000
15043SI     SI115043   8.159   8.509   8.618  0.0000  0.0000  0.0000
15044SI     SI115044   6.923   1.239   1.271  0.0000  0.0000  0.0000
15045SI     SI115045   3.337   5.901   0.669  0.0000  0.0000  0.0000
15046SI     SI115046   3.761   2.995   0.119  0.0000  0.0000  0.0000
15047SI     SI115047   5.477   4.362   8.869  0.0000  0.0000  0.0000
15048SI     SI115048   0.963   5.172   9.015  0.0000  0.0000  0.0000
15049SI     SI115049   1.293   0.439   0.777  0.0000  0.0000  0.0000
15050SI     SI115050   0.088   7.422   9.427  0.0000  0.0000  0.0000
15051SI     SI115051   5.693   0.702   9.526  0.0000  0.0000  0.0000
15052SI     SI115052   4.678   5.281   1.089  0.0000  0.0000  0.0000
15053SI     SI115053   0.085   0.807   0.279  0.0000  0.0000  0.0000
15054SI     SI115054   6.541   4.796   9.196  0.0000  0.0000  0.0000
15055SI     SI115055   0.791   6.217   1.233  0.0000  0.0000  0.0000
15056SI     SI115056   5.566   1.033   0.136  0.0000  0.0000  0.0000
15057SI     SI115057   8.332   0.391   9.580  0.0000  0.0000  0.0000
15058SI     SI115058   0.190   8.115   9.136  0.0000  0.0000  0.0000
15059SI     SI115059   8.685   7.285   8.621  0.0000  0.0000  0.0000
15060SI     SI115060   8.803   7.278   0.416  0.0000  0.0000  0.0000
15061SI     SI115061   3.733   8.523   1.097  0.0000  0.0000  0.0000
15062SI     SI115062   1.312   4.305   8.704  0.0000  0.0000  0.0000
15063SI     SI115063   2.118   6.298   0.104  0.0000  0.0000  0.0000
15064SI     SI115064   5.511   5.712   0.224  0.0000  0.0000  0.0000
15065SI     SI115065   6.557   5.941   0.919  0.0000  0.0000  0.0000
15066SI     SI115066   3.710   9.199   8.805  0.0000  0.0000  0.0000
15067SI     SI115067   2.155   1.852   0.185  0.0000  0.0000  0.0000
15068SI     SI115068   3.730   1.812   9.334  0.0000  0.0000  0.0000
15069SI     SI115069   0.672   8.196   9.213  0.0000  0.0000  0.0000
15070SI     SI115070   8.055   4.150   8.926  0.0000  0.0000  0.0000
15071SI     SI115071   6.968   0.656   0.379  0.0000  0.0000  0.0000
15072SI     SI115072   2.002   4.570   0.381  0.0000  0.0000  0.0000
15073SI     SI115073   8.484   8.779   8.812  0.0000  0.0000  0.0000
15074SI     SI115074   1.589   2.420   9.161  0.0000  0.0000  0.0000
15075SI     SI115075   1.416   0.363   0.319  0.0000  0.0000  0.0000
15076SI     SI115076   4.416   3.117   0.379  0.0000  0.0000  0.0000
15077SI     SI115077   1.337   5.874   8.869  0.0000  0.0000  0.0000
15078SI     SI115078   9.298   7.990   8.620  0.0000  0.0000  0.0000
15079SI     SI115079   8.636   1.155   8.420  0.0000  0.0000  0.0000
15080SI     SI115080   7.094   2.685   1.304  0.0000  0.0000  0.0000
15081SI     SI115081   7.583   9.416   8.711  0.0000  0.0000  0.0000
15082SI     SI115082   0.625   2.345   1.232  0.0000  0.0000  0.0000
15083SI     SI115083   2.781   7.395   0.009  0.0000  0.0000  0.0000
15084SI     SI115084   7.654   2.539   8.410  0.0000  0.0000  0.0000
15085SI     SI115085   3.949   2.551   8.802  0.0000  0.0000  0.0000
15086SI     SI115086   0.802   6.215   8.645  0.0000  0.0000  0.0000
15087SI     SI115087   6.792   5.420   0.007  0.0000  0.0000  0.0000
15088SI     SI115088   0.720   6.459   9.072  0.0000  0.0000  0.0000
15089SI     SI115089   0.946   7.752   0.034  0.0000  0.0000  0.0000
15090SI     SI115090   6.130   0.917   8.410  0.0000  0.0000  0.0000
15091SI     SI115091   4.276   8.108   9.186  0.0000  0.0000  0.0000
15092SI     SI115092   2.440   0.756   8.962  0.0000  0.0000  0.0000
15093SI     SI115093   1.530   9.243   1.173  0.0000  0.0000  0.0000
15094SI     SI115094   2.035   1.811   8.533  0.0000  0.0000  0.0000
15095SI     SI115095   8.440   2.090   0.521  0.0000  0.0000  0.0000
15096SI     SI115096   7.417   0.597   8.247  0.0000  0.0000  0.0000
15097SI     SI115097   2.076   2.799   0.533  0.0000  0.0000  0.0000
15098SI     SI115098   6.687   8.508   8.769  0.0000  0.0000  0.0000
15099SI     SI115099   7.312   7.966   0.695  0.0000  0.0000  0.0000
15100SI     SI115100   0.166   8.063   0.507  0.0000  0.0000  0.0000
15101SI     SI115101   3.375   2.183   0.274  0.0000  0.0000  0.0000
15102SI     SI115102   8.746   3.881   0.375  0.0000  0.0000  0.0000
15103SI     SI115103   4.410   4.011   1.258  0.0000  0.0000  0.0000
15104SI     SI115104   3.078   1.163   0.306  0.0000  0.0000  0.0000
15105SI     SI115105   0.037   8.352   8.711  0.0000  0.0000  0.0000
15106SI     SI115106   3.690   6.984   0.128  0.0000  0.0000  0.0000
15107SI     SI115107   5.028   7.598   0.549  0.0000  0.0000  0.0000
15108SI     SI115108   2.240   3.522   8.544  0.0000  0.0000  0.0000
15109SI     SI115109   8.550   2.275   9.376  0.0000  0.0000  0.0000
15110SI     SI115110   6.392   5.637   8.529  0.0000  0.0000  0.0000
15111SI     SI115111   1.234   3.434   0.516  0.0000  0.0000  0.0000
15112SI     SI115112   3.019   3.442   8.409  0.0000  0.0000  0.0000
15113SI     SI115113   1.566   8.561   0.049  0.0000  0.0000  0.0000
15114SI     SI115114   1.146   4.561   9.056  0.0000  0.0000  0.0000
15115SI     SI115115   6.652   0.872   0.924  0.0000  0.0000  0.0000
15116SI     SI115116   5.120   0.689   8.718  0.0000  0.0000  0.0000
15117SI     SI115117   8.290   2.689   1.061  0.0000  0.0000  0.0000
15118SI     SI115118   5.121   5.166   0.634  0.0000  0.0000  0.0000
15119SI     SI115119   6.353   9.546   0.486  0.0000  0.0000  0.0000
15120SI     SI115120   2.880   7.460   8.474  0.0000  0.0000  0.0000
15121SI     SI115121   2.217   9.372   1.071  0.0000  0.0000  0.0000
15122SI     SI115122   7.135   7.389   0.307  0.0000  0.0000  0.0000
15123SI     SI115123   1.049   1.281   8.215  0.0000  0.0000  0.0000
15124SI     SI115124   8.426   4.834   1.159  0.0000  0.0000  0.0000
15125SI     SI115125   4.989   1.307   9.123  0.0000  0.0000  0.0000
15126SI     SI115126   3.474   5.160   0.796  0.0000  0.0000  0.0000
15127SI     SI115127   6.108   6.583   0.371  0.0000  0.0000  0.0000
15128SI     SI115128   6.349   4.753   8.468  0.0000  0.0000  0.0000
15129SI     SI115129   7.838   4.952   9.291  0.0000  0.0000  0.0000
15130SI     SI115130   5.956   3.908   8.956  0.0000  0.0000  0.0000
15131SI     SI115131   1.810   0.745   9.144  0.0000  0.0000  0.0000
15132SI     SI115132   5.386   7.218   8.866  0.0000  0.0000  0.0000
15133SI     SI115133   2.181   7.227   1.224  0.0000  0.0000  0.0000
15134SI     SI115134   0.696   5.934   0.876  0.0000  0.0000  0.0000
15135SI     SI115135   9.472   3.654   0.434  0.0000  0.0000  0.0000
15136SI     SI115136   8.457   7.302   8.847  0.0000  0.0000  0.0000
15137SI     SI115137   3.616   7.475   0.390  0.0000  0.0000  0.0000
15138SI     SI115138   5.380   4.549   0.417  0.0000  0.0000  0.0000
15139SI     SI115139   1.701   1.772   9.481  0.0000  0.0000  0.0000
15140SI     SI115140   6.381   7.187   8.406  0.0000  0.0000  0.0000
15141SI     SI115141   3.775   2.480   1.185  0.0000  0.0000  0.0000
15142SI     SI115142   0.765   5.050   8.466  0.0000  0.0000  0.0000
15143SI     SI115143   3.465   5.186   9.117  0.0000  0.0000  0.0000
15144SI     SI115144   3.629   8.035   9.571  0.0000  0.0000  0.0000
15145SI     SI115145   2.052   4.971   0.758  0.0000  0.0000  0.0000
15146SI     SI115146   3.072   8.658   8.756  0.0000  0.0000  0.0000
15147SI     SI115147   1.528   2.158   8.736  0.0000  0.0000  0.0000
15148SI     SI115148   3.781   3.361   8.447  0.0000  0.0000  0.0000
15149SI     SI115149   8.690   7.565   0.448  0.0000  0.0000  0.0000
15150SI     SI115150   1.450   1.006   0.701  0.0000  0.0000  0.0000
15151SI     SI115151   5.346   2.475   0.750  0.0000  0.0000  0.0000
15152SI     SI115152   3.440   3.297   0.381  0.0000  0.0000  0.0000
15153SI     SI115153   5.311   1.901   0.064  0.0000  0.0000  0.0000
15154SI     SI115154   8.222   3.293   1.237  0.0000  0.0000  0.0000
15155SI     SI115155   2.467   7.278   9.061  0.0000  0.0000  0.0000
15156SI     SI115156   7.553   1.826   9.399  0.0000  0.0000  0.0000
15157SI     SI115157   2.464   3.508   0.511  0.0000  0.0000  0.0000
15158SI     SI115158   3.194   4.524   8.311  0.0000  0.0000  0.0000
15159SI     SI115159   2.023   2.070   0.363  0.0000  0.0000  0.0000
15160SI     SI115160   7.617   2.749   0.179  0.0000  0.0000  0.0000
15161SI     SI115161   0.507   3.546   0.564  0.0000  0.0000  0.0000
15162SI     SI115162   3.347   6.919   8.937  0.0000  0.0000  0.0000
15163SI     SI115163   8.810   7.841   0.832  0.0000  0.0000  0.0000
15164SI     SI115164   7.264   4.375   9.047  0.0000  0.0000  0.0000
15165SI     SI115165   2.647   8.242   0.003  0.0000  0.0000  0.0000
15166SI     SI115166   2.637   0.735   9.451  0.0000  0.0000  0.0000
15167SI     SI115167   2.882   8.701   9.011  0.0000  0.0000  0.0000
15168SI     SI115168   1.297   0.885   0.449  0.0000  0.0000  0.0000
15169SI     SI115169   3.974   3.493   8.623  0.0000  0.0000  0.0000
15170SI     SI115170   7.785   2.863   0.930  0.0000  0.0000  0.0000
15171SI     SI115171   2.232   1.436   0.954  0.0000  0.0000  0.0000
15172SI     SI115172   5.674   3.862   9.040  0.0000  0.0000  0.0000
15173SI     SI115173   8.438   7.708   8.286  0.0000  0.0000  0.0000
15174SI     SI115174   8.239   7.346   0.157  0.0000  0.0000  0.0000
15175SI     SI115175   8.868   6.524   8.426  0.0000  0.0000  0.0000
15176SI     SI115176   0.710   1.181   1.116  0.0000  0.0000  0.0000
15177SI     SI115177   6.264   9.508   0.965  0.0000  0.0000  0.0000
15178SI     SI115178   3.805   1.173   8.218  0.0000  0.0000  0.0000
15179SI     SI115179   7.137   6.491   1.243  0.0000  0.0000  0.0000
15180SI     SI115180   8.705   9.279   9.587  0.0000  0.0000  0.0000
15181SI     SI115181   8.751   4.888   0.385  0.0000  0.0000  0.0000
15182SI     SI115182   5.217   3.218   0.915  0.0000  0.0000  0.0000
15183SI     SI115183   4.078   1.284   1.100  0.0000  0.0000  0.0000
15184SI     SI115184   2.617   7.492   1.311  0.0000  0.0000  0.0000
15185SI     SI115185   8.490   1.128   9.431  0.0000  0.0000  0.0000
15186SI     SI115186   2.532   1.227   0.709  0.0000  0.0000  0.0000
15187SI     SI115187   3.417   3.725   1.115  0.0000  0.0000  0.0000
15188SI     SI115188   1.189   0.871   8.527  0.0000  0.0000  0.0000
15189SI     SI115189   0.799   5.661   0.038  0.0000  0.0000  0.0000
15190SI     SI115190   4.890   2.393   9.308  0.0000  0.0000  0.0000
15191SI     SI115191   0.820   0.524   0.838  0.0000  0.0000  0.0000
15192SI     SI115192   6.417   0.430   9.284  0.0000  0.0000  0.0000
15193SI     SI115193   7.918   4.475   8.209  0.0000  0.0000  0.0000
15194SI     SI115194   7.660   1.075   0.005  0.0000  0.0000  0.0000
15195SI     SI115195   4.803   3.229   1.086  0.0000  0.0000  0.0000
15196SI     SI115196   0.931   2.228   9.349  0.0000  0.0000  0.0000
15197SI     SI115197   0.190   1.951   9.123  0.0000  0.0000  0.0000
15198SI     SI115198   1.545   3.770   0.873  0.0000  0.0000  0.0000
15199SI     SI115199   3.376   3.085   0.597  0.0000  0.0000  0.0000
15200SI     SI115200   2.928   9.399   0.704  0.0000  0.0000  0.0000
15201SI     SI115201   5.924   0.305   8.798  0.0000  0.0000  0.0000
15202SI     SI115202   5.192   3.101   9.218  0.0000  0.0000  0.0000
15203SI     SI115203   1.437   4.678   9.047  0.0000  0.0000  0.0000
15204SI     SI115204   5.049   3.553   9.145  0.0000  0.0000  0.0000
15205SI     SI115205   1.978   3.159   0.860  0.0000  0.0000  0.0000
15206SI     SI115206   8.578   7.759   0.645  0.0000  0.0000  0.0000
15207SI     SI115207   0.248   2.035   0.071  0.0000  0.0000  0.0000
15208SI     SI115208   7.642   2.056   8.902  0.0000  0.0000  0.0000
15209SI     SI115209   6.607   3.136   8.774  0.0000  0.0000  0.0000
15210SI     SI115210   6.666   9.019   8.599  0.0000  0.0000  0.0000
15211SI     SI115211   1.863   5.527   8.677  0.0000  0.0000  0.0000
15212SI     SI115212   4.462   0.085   9.099  0.0000  0.0000  0.0000
15213SI     SI115213   4.522   8.629   0.962  0.0000  0.0000  0.0000
15214SI     SI115214   0.084   2.364   8.504  0.0000  0.0000  0.0000
15215SI     SI115215   2.147   6.254   0.831  0.0000  0.0000  0.0000
15216SI     SI115216   2.975   2.122   8.844  0.0000  0.0000  0.0000
15217SI     SI115217   4.354   1.068   9.152  0.0000  0.0000  0.0000
15218SI     SI115218   6.154   5.764   0.015  0.0000  0.0000  0.0000
15219SI     SI115219   7.171   1.975   0.211  0.0000  0.0000  0.0000
15220SI     SI115220   3.641   5.974   0.688  0.0000  0.0000  0.0000
15221SI     SI115221   0.548   1.093   0.290  0.0000  0.0000  0.0000
15222SI     SI115222   9.233   0.216   0.164  0.0000  0.0000  0.0000
15223SI     SI115223   1.155   8.805   9.478  0.0000  0.0000  0.0000
15224SI     SI115224   9.295   1.420   8.916  0.0000  0.0000  0.0000
15225SI     SI115225   0.654   2.440   8.956  0.0000  0.0000  0.0000
15226SI     SI115226   0.778   6.471   0.883  0.0000  0.0000  0.0000
15227SI     SI115227   0.539   7.763   0.343  0.0000  0.0000  0.0000
15228SI     SI115228   2.813   4.961   0.273  0.0000  0.0000  0.0000
15229SI     SI115229   4.074   5.691   1.160  0.0000  0.0000  0.0000
15230SI     SI115230   0.268   2.135   1.061  0.0000  0.0000  0.0000
15231SI     SI115231   9.511   4.704   9.602  0.0000  0.0000  0.0000
15232SI     SI115232   3.500   7.719   8.815  0.0000  0.0000  0.0000
15233SI     SI115233   2.310   3.434   9.114  0.0000  0.0000  0.0000
15234SI     SI115234   0.340   2.183   8.474  0.0000  0.0000  0.0000
15235SI     SI115235   1.425   8.357   8.563  0.0000  0.0000  0.0000
15236SI     SI115236   2.504   4.114   9.104  0.0000  0.0000  0.0000
15237SI     SI115237   1.816   9.026   0.102  0.0000  0.0000  0.0000
15238SI     SI115238   6.307   7.077   0.464  0.0000  0.0000  0.0000
15239SI     SI115239   6.390   1.520   9.491  0.0000  0.0000  0.0000
15240SI     SI115240   9.369   7.249   8.961  0.0000  0.0000  0.0000
15241SI     SI115241   7.894   3.999   9.459  0.0000  0.0000  0.0000
15242SI     SI115242   8.673   3.139   0.435  0.0000  0.0000  0.0000
15243SI     SI115243   7.582   3.125   9.565  0.0000  0.0000  0.0000
15244SI     SI115244   4.216   2.576   9.407  0.0000  0.0000  0.0000
15245SI     SI115245   7.894   7.862   9.196  0.0000  0.0000  0.0000
15246SI     SI115246   3.272   6.321   9.133  0.0000  0.0000  0.0000
15247SI     SI115247   4.793   6.180   9.269  0.0000  0.0000  0.0000
15248SI     SI115248   3.943   0.739   0.577  0.0000  0.0000  0.0000
15249SI     SI115249   7.399   4.144   9.382  0.0000  0.0000  0.0000
15250SI     SI115250   1.620   4.153   8.992  0.0000  0.0000  0.0000
15251SI     SI115251   7.862   7.408   8.652  0.0000  0.0000  0.0000
15252SI     SI115252   1.311   2.108   8.959  0.0000  0.0000  0.0000
15253SI     SI115253   6.012   2.869   0.477  0.0000  0.0000  0.0000
15254SI     SI115254   0.026   6.385   9.369  0.0000  0.0000  0.0000
15255SI     SI115255   8.622   0.814   8.683  0.0000  0.0000  0.0000
15256SI     SI115256   3.901   4.234   8.622  0.0000  0.0000  0.0000
15257SI     SI115257   4.753   8.357   9.255  0.0000  0.0000  0.0000
15258SI     SI115258   9.428   0.705   0.930  0.0000  0.0000  0.0000
15259SI     SI115259   8.164   2.465   0.403  0.0000  0.0000  0.0000
15260SI     SI115260   1.939   3.674   0.295  0.0000  0.0000  0.0000
15261SI     SI115261   6.385   4.437   8.896  0.0000  0.0000  0.0000
15262SI     SI115262   6.644   0.228   9.555  0.0000  0.0000  0.0000
15263SI     SI115263   4.203   2.599   1.126  0.0000  0.0000  0.0000
15264SI     SI115264   7.778   9.187   8.814  0.0000  0.0000  0.0000
15265SI     SI115265   5.076   1.071   9.308  0.0000  0.0000  0.0000
15266SI     SI115266   2.352   0.085   0.397  0.0000  0.0000  0.0000
15267SI     SI115267   8.139   5.181   1.182  0.0000  0.0000  0.0000
15268SI     SI115268   4.398   3.933   0.491  0.0000  0.0000  0.0000
15269SI     SI115269   2.265   2.551   0.481  0.0000  0.0000  0.0000
15270SI     SI115270   5.921   7.417   8.271  0.0000  0.0000  0.0000
15271SI     SI115271   3.240   8.467   0.020  0.0000  0.0000  0.0000
15272SI     SI115272   4.356   8.873   9.282  0.0000  0.0000  0.0000
15273SI     SI115273   3.654   0.758   8.631  0.0000  0.0000  0.0000
15274SI     SI115274   9.566   5.667   8.741  0.0000  0.0000  0.0000
15275SI     SI115275   2.572   6.744   1.003  0.0000  0.0000  0.0000
15276SI     SI115276   1.463   3.081   0.805  0.0000  0.0000  0.0000
15277SI     SI115277   0.911   3.522   8.444  0.0000  0.0000  0.0000
15278SI     SI115278   5.885   7.341   8.735  0.0000  0.0000  0.0000
15279SI     SI115279   0.674   6.181   9.196  0.0000  0.0000  0.0000
15280SI     SI115280   4.348   3.628   8.834  0.0000  0.0000  0.0000
15281SI     SI115281   4.493   2.280   1.235  0.0000  0.0000  0.0000
15282SI     SI115282   5.749   2.772   9.042  0.0000  0.0000  0.0000
15283SI     SI115283   1.598   8.826   8.551  0.0000  0.0000  0.0000
15284SI     SI115284   3.584   8.455   0.315  0.0000  0.0000  0.0000
15285SI     SI115285   8.404   6.001   9.538  0.0000  0.0000  0.0000
15286SI     SI115286   0.037   5.883   0.491  0.0000  0.0000  0.0000
15287SI     SI115287   8.842   4.736   9.131  0.0000  0.0000  0.0000
15288SI     SI115288   1.474   4.725   9.567  0.0000  0.0000  0.0000
15289SI     SI115289   8.192   5.248   0.505  0.0000  0.0000  0.0000
15290SI     SI115290   6.760   2.675   0.183  0.0000  0.0000  0.0000
15291SI     SI115291   2.356   4.139   8.643  0.0000  0.0000  0.0000
15292SI     SI115292   4.630   6.318   0.219  0.0000  0.0000  0.0000
15293SI     SI115293   3.052   8.760   9.274  0.0000  0.0000  0.0000
15294SI     SI115294   4.383   9.268   8.883  0.0000  0.0000  0.0000
15295SI     SI115295   8.191   4.572   8.906  0.0000  0.0000  0.0000
15296SI     SI115296   7.406   9.228   8.552  0.0000  0.0000  0.0000
15297SI     SI115297   8.558   9.305   8.759  0.0000  0.0000  0.0000
15298SI     SI115298   5.160   2.816   9.113  0.0000  0.0000  0.0000
15299SI     SI115299   2.495   4.808   9.288  0.0000  0.0000  0.0000
15300SI     SI115300   0.893   1.248   8.713  0.0000  0.0000  0.0000
15301SI     SI115301   1.397   2.910   9.344  0.0000  0.0000  0.0000
15302SI     SI115302   0.692   0.631   9.492  0.0000  0.0000  0.0000
15303SI     SI115303   3.671   9.185   9.231  0.0000  0.0000  0.0000
15304SI     SI115304   2.050   5.694   0.850  0.0000  0.0000  0.0000
15305SI     SI115305   2.847   8.404   9.448  0.0000  0.0000  0.0000
15306SI     SI115306   0.721   7.054   1.074  0.0000  0.0000  0.0000
15307SI     SI115307   7.782   6.971   0.011  0.0000  0.0000  0.0000
15308SI     SI115308   5.779   6.673   0.990  0.0000  0.0000  0.0000
15309SI     SI115309   7.124   5.728   1.065  0.0000  0.0000  0.0000
15310SI     SI115310   2.481   7.705   9.288  0.0000  0.0000  0.0000
15311SI     SI115311   4.318   8.540   0.622  0.0000  0.0000  0.0000
15312SI     SI115312   4.868   3.493   0.660  0.0000  0.0000  0.0000
15313SI     SI115313   6.196   7.184   1.194  0.0000  0.0000  0.0000
15314SI     SI115314   4.552   8.743   9.087  0.0000  0.0000  0.0000
15315SI     SI115315   9.494   7.485   0.264  0.0000  0.0000  0.0000
15316SI     SI115316   7.231   6.802   9.088  0.0000  0.0000  0.0000
15317SI     SI115317   1.543   8.345   0.431  0.0000  0.0000  0.0000
15318SI     SI115318   1.426   3.896   8.995  0.0000  0.0000  0.0000
15319SI     SI115319   9.557   5.514   9.014  0.0000  0.0000  0.0000
15320SI     SI115320   4.386   2.644   8.945  0.0000  0.0000  0.0000
15321SI     SI115321   2.547   4.015   8.155  0.0000  0.0000  0.0000
15322SI     SI115322   3.827   4.181   9.605  0.0000  0.0000  0.0000
15323SI     SI115323   5.174   9.281   1.321  0.0000  0.0000  0.0000
15324SI     SI115324   2.725   7.984   0.095  0.0000  0.0000  0.0000
15325SI     SI115325   2.324   2.363   8.961  0.0000  0.0000  0.0000
15326SI     SI115326   8.866   6.469   0.397  0.0000  0.0000  0.0000
15327SI     SI115327   6.807   1.661   9.187  0.0000  0.0000  0.0000
15328SI     SI115328   0.560   8.455   0.507  0.0000  0.0000  0.0000
15329SI     SI115329   0.504   8.644   0.971  0.0000  0.0000  0.0000
15330SI     SI115330   1.233   0.602   8.796  0.0000  0.0000  0.0000
15331SI     SI115331   8.648   8.926   0.648  0.0000  0.0000  0.0000
15332SI     SI115332   2.141   7.433   8.723  0.0000  0.0000  0.0000
15333SI     SI115333   0.527   0.560   0.756  0.0000  0.0000  0.0000
15334SI     SI115334   2.800   2.340   8.392  0.0000  0.0000  0.0000
15335SI     SI115335   8.894   8.262   9.062  0.0000  0.0000  0.0000
15336SI     SI115336   7.895   0.594   0.616  0.0000  0.0000  0.0000
15337SI     SI115337   4.229   7.712   8.798  0.0000  0.0000  0.0000
15338SI     SI115338   1.943   7.567   0.563  0.0000  0.0000  0.0000
15339SI     SI115339   7.982   8.261   8.946  0.0000  0.0000  0.0000
15340SI     SI115340   6.112   4.635   0.883  0.0000  0.0000  0.0000
15341SI     SI115341   6.247   2.363   8.737  0.0000  0.0000  0.0000
15342SI     SI115342   0.435   3.079   1.344  0.0000  0.0000  0.0000
15343SI     SI115343   4.596   8.200   0.048  0.0000  0.0000  0.0000
15344SI     SI115344   1.867   7.157   0.044  0.0000  0.0000  0.0000
15345SI     SI115345   1.535   4.880   1.128  0.0000  0.0000  0.0000
15346SI     SI115346   2.655   8.876   8.678  0.0000  0.0000  0.0000
15347SI     SI115347   8.107   4.406   9.376  0.0000  0.0000  0.0000
15348SI     SI115348   5.013   1.421   8.552  0.0000  0.0000  0.0000
15349SI     SI115349   5.663   7.862   0.813  0.0000  0.0000  0.0000
15350SI     SI115350   3.396   0.476   8.907  0.0000  0.0000  0.0000
15351SI     SI115351   5.375   6.762   0.706  0.0000  0.0000  0.0000
15352SI     SI115352   1.827   4.900   1.395  0.0000  0.0000  0.0000
15353SI     SI115353   3.073   5.322   0.732  0.0000  0.0000  0.0000
15354SI     SI115354   4.200   3.132   8.767  0.0000  0.0000  0.0000
15355SI     SI115355   5.441   7.021   8.622  0.0000  0.0000  0.0000
15356SI     SI115356   0.859   2.487   0.358  0.0000  0.0000  0.0000
15357SI     SI115357   8.725   0.157   8.755  0.0000  0.0000  0.0000
15358SI     SI115358   5.671   5.035   9.449  0.0000  0.0000  0.0000
15359SI     SI115359   9.529   2.825   8.607  0.0000  0.0000  0.0000
15360SI     SI115360   5.456   7.812   0.359  0.0000  0.0000  0.0000
15361SI     SI115361   0.670   7.681   9.188  0.0000  0.0000  0.0000
15362SI     SI115362   6.429   0.586   9.025  0.0000  0.0000  0.0000
15363SI     SI115363   6.605   5.811   0.301  0.0000  0.0000  0.0000
15364SI     SI115364   4.263   1.074   9.456  0.0000  0.0000  0.0000
15365SI     SI115365   2.758   4.240   8.496  0.0000  0.0000  0.0000
15366SI     SI115366   5.586   7.195   0.679  0.0000  0.0000  0.0000
15367SI     SI115367   9.052   4.826   9.310  0.0000  0.0000  0.0000
15368SI     SI115368   0.800   8.895   0.298  0.0000  0.0000  0.0000
15369SI     SI115369   0.497   4.975   0.965  0.0000  0.0000  0.0000
15370SI     SI115370   4.211   4.591   0.450  0.0000  0.0000  0.0000
15371SI     SI115371   4.665   0.510   0.416  0.0000  0.0000  0.0000
15372SI     SI115372   2.931   2.840   0.175  0.0000  0.0000  0.0000
15373SI     SI115373   6.011   8.093   1.056  0.0000  0.0000  0.0000
15374SI     SI115374   8.518   8.003   0.484  0.0000  0.0000  0.0000
15375SI     SI115375   6.237   6.312   0.446  0.0000  0.0000  0.0000
15376SI     SI115376   5.466   3.578   9.424  0.0000  0.0000  0.0000
15377SI     SI115377   1.740   5.494   9.119  0.0000  0.0000  0.0000
15378SI     SI115378   1.574   4.303   9.249  0.0000  0.0000  0.0000
15379SI     SI115379   6.421   5.741   9.452  0.0000  0.0000  0.0000
15380SI     SI115380   9.166   6.473   0.386  0.0000  0.0000  0.0000
15381SI     SI115381   0.241   3.926   8.986  0.0000  0.0000  0.0000
15382SI     SI115382   4.208   2.934   0.236  0.0000  0.0000  0.0000
15383SI     SI115383   2.860   6.110   9.279  0.0000  0.0000  0.0000
15384SI     SI115384   8.446   2.376   0.484  0.0000  0.0000  0.0000
15385SI     SI115385   1.430   6.094   0.464  0.0000  0.0000  0.0000
15386SI     SI115386   4.614   6.216   8.778  0.0000  0.0000  0.0000
15387SI     SI115387   6.574   2.597   0.427  0.0000  0.0000  0.0000
15388SI     SI115388   0.460   2.241   8.878  0.0000  0.0000  0.0000
15389SI     SI115389   6.009   5.902   9.034  0.0000  0.0000  0.0000
15390SI     SI115390   0.442   7.448   0.694  0.0000  0.0000  0.0000
15391SI     SI115391   7.295   7.610   1.098  0.0000  0.0000  0.0000
15392SI     SI115392   8.027   4.230   8.619  0.0000  0.0000  0.0000
15393SI     SI115393   5.432   6.307   8.579  0.0000  0.0000  0.0000
15394SI     SI115394   4.057   0.978   0.712  0.0000  0.0000  0.0000
15395SI     SI115395   4.181   0.558   8.669  0.0000  0.0000  0.0000
15396SI     SI115396   3.566   3.962   0.773  0.0000  0.0000  0.0000
15397SI     SI115397   3.252   3.427   1.366  0.0000  0.0000  0.0000
15398SI     SI115398   3.885   1.133   0.925  0.0000  0.0000  0.0000
15399SI     SI115399   2.213   4.098   9.039  0.0000  0.0000  0.0000
15400SI     SI115400   1.489   6.468   8.547  0.0000  0.0000  0.0000
15401SI     SI115401   4.032   2.681   0.868  0.0000  0.0000  0.0000
15402SI     SI115402   4.445   2.199   8.821  0.0000  0.0000  0.0000
15403SI     SI115403   7.831   4.461   8.649  0.0000  0.0000  0.0000
15404SI     SI115404   3.200   4.472   9.055  0.0000  0.0000  0.0000
15405SI     SI115405   1.404   2.570   0.021  0.0000  0.0000  0.0000
15406SI     SI115406   5.111   1.586   8.809  0.0000  0.0000  0.0000
15407SI     SI115407   4.661   6.481   1.114  0.0000  0.0000  0.0000
15408SI     SI115408   0.704   7.126   0.795  0.0000  0.0000  0.0000
15409SI     SI115409   1.216   2.243   9.434  0.0000  0.0000  0.0000
15410SI     SI115410   2.135   8.954   8.540  0.0000  0.0000  0.0000
15411SI     SI115411   5.140   3.730   8.426  0.0000  0.0000  0.0000
15412SI     SI115412   2.864   5.680   0.150  0.0000  0.0000  0.0000
15413SI     SI115413   2.205   2.320   0.291  0.0000  0.0000  0.0000
15414SI     SI115414   1.310   8.771   8.532  0.0000  0.0000  0.0000
15415SI     SI115415   3.476   0.999   0.075  0.0000  0.0000  0.0000
15416SI     SI115416   9.179   8.212   9.038  0.0000  0.0000  0.0000
15417SI     SI115417   3.110   6.480   0.926  0.0000  0.0000  0.0000
15418SI     SI115418   1.171   5.560   9.269  0.0000  0.0000  0.0000
15419SI     SI115419   8.101   9.019   8.525  0.0000  0.0000  0.0000
15420SI     SI115420   7.877   3.307   0.933  0.0000  0.0000  0.0000
15421SI     SI115421   3.978   0.839   9.262  0.0000  0.0000  0.0000
15422SI     SI115422   8.210   0.875   8.359  0.0000  0.0000  0.0000
15423SI     SI115423   4.515   5.790   8.369  0.0000  0.0000  0.0000
15424SI     SI115424   5.252   3.757   0.192  0.0000  0.0000  0.0000
15425SI     SI115425   3.353   4.389   9.327  0.0000  0.0000  0.0000
15426SI     SI115426   4.128   4.879   9.035  0.0000  0.0000  0.0000
15427SI     SI115427   1.917   3.622   8.940  0.0000  0.0000  0.0000
15428SI     SI115428   8.372   5.884   1.216  0.0000  0.0000  0.0000
15429SI     SI115429   5.755   8.008   8.388  0.0000  0.0000  0.0000
15430SI     SI115430   4.029   6.385   0.765  0.0000  0.0000  0.0000
15431SI     SI115431   2.372   2.786   9.231  0.0000  0.0000  0.0000
15432SI     SI115432   7.595   9.461   0.728  0.0000  0.0000  0.0000
15433SI     SI115433   2.169   1.721   9.270  0.0000  0.0000  0.0000
15434SI     SI115434   1.119   2.778   8.474  0.0000  0.0000  0.0000
15435SI     SI115435   3.561   9.484   0.894  0.0000  0.0000  0.0000
15436SI     SI115436   6.964   4.710   0.604  0.0000  0.0000  0.0000
15437SI     SI115437   9.595   5.601   0.926  0.0000  0.0000  0.0000
15438SI     SI115438   6.765   3.248   0.187  0.0000  0.0000  0.0000
15439SI     SI115439   0.447   6.727   0.020  0.0000  0.0000  0.0000
15440SI     SI115440   0.609   8.180   0.133  0.0000  0.0000  0.0000
15441SI     SI115441   2.162   6.636   8.500  0.0000  0.0000  0.0000
15442SI     SI115442   5.314   2.755   0.157  0.0000  0.0000  0.0000
15443SI     SI115443   4.151   1.619   0.529  0.0000  0.0000  0.0000
15444SI     SI115444   6.451   3.895   1.344  0.0000  0.0000  0.0000
15445SI     SI115445   9.339   5.194   9.322  0.0000  0.0000  0.0000
15446SI     SI115446   3.109   1.887   0.579  0.0000  0.0000  0.0000
15447SI     SI115447   0.269   4.151   0.270  0.0000  0.0000  0.0000
15448SI     SI115448   4.205   1.656   9.210  0.0000  0.0000  0.0000
15449SI     SI115449   2.917   6.501   8.758  0.0000  0.0000  0.0000
15450SI     SI115450   8.359   5.807   0.921  0.0000  0.0000  0.0000
15451SI     SI115451   2.962   3.935   0.065  0.0000  0.0000  0.0000
15452SI     SI115452   6.627   6.104   0.247  0.0000  0.0000  0.0000
15453SI     SI115453   1.425   7.133   8.613  0.0000  0.0000  0.0000
15454SI     SI115454   4.673   2.717   0.423  0.0000  0.0000  0.0000
15455SI     SI115455   7.717   1.095   8.807  0.0000  0.0000  0.0000
15456SI     SI115456   3.464   2.408   0.457  0.0000  0.0000  0.0000
15457SI     SI115457   4.922   5.757   9.437  0.0000  0.0000  0.0000
15458SI     SI115458   4.366   1.830   1.150  0.0000  0.0000  0.0000
15459SI     SI115459   8.870   5.296   8.393  0.0000  0.0000  0.0000
15460SI     SI115460   8.920   5.296   0.363  0.0000  0.0000  0.0000
15461SI     SI115461   5.596   0.413   8.416  0.0000  0.0000  0.0000
15462SI     SI115462   3.932   7.550   0.946  0.0000  0.0000  0.0000
15463SI     SI115463   6.922   0.995   0.869  0.0000  0.0000  0.0000
15464SI     SI115464   3.936   5.691   0.902  0.0000  0.0000  0.0000
15465SI     SI115465   5.307   0.194   9.278  0.0000  0.0000  0.0000
15466SI     SI115466   6.113   8.271   9.422  0.0000  0.0000  0.0000
15467SI     SI115467   2.792   0.157   0.350  0.0000  0.0000  0.0000
15468SI     SI115468   8.682   8.008   9.424  0.0000  0.0000  0.0000
15469SI     SI115469   7.306   7.201   0.787  0.0000  0.0000  0.0000
15470SI     SI115470   1.495   4.765   0.429  0.0000  0.0000  0.0000
15471SI     SI115471   3.424   8.473   8.697  0.0000  0.0000  0.0000
15472SI     SI115472   5.299   4.942   8.650  0.0000  0.0000  0.0000
15473SI     SI115473   5.841   1.977   9.257  0.0000  0.0000  0.0000
15474SI     SI115474   7.728   4.481   1.221  0.0000  0.0000  0.0000
15475SI     SI115475   7.239   6.228   1.114  0.0000  0.0000  0.0000
15476SI     SI115476   5.355   1.982   1.298  0.0000  0.0000  0.0000
15477SI     SI115477   7.067   0.979   8.949  0.0000  0.0000  0.0000
15478SI     SI115478   0.535   4.489   9.328  0.0000  0.0000  0.0000
15479SI     SI115479   3.879   3.388   0.344  0.0000  0.0000  0.0000
15480SI     SI115480   5.257   0.102   0.198  0.0000  0.0000  0.0000
15481SI     SI115481   8.095   2.107   9.342  0.0000  0.0000  0.0000
15482SI     SI115482   7.188   3.935   1.177  0.0000  0.0000  0.0000
15483SI     SI115483   8.955   2.110   0.334  0.0000  0.0000  0.0000
15484SI     SI115484   7.122   2.011   0.830  0.0000  0.0000  0.0000
15485SI     SI115485   2.767   0.213   9.477  0.0000  0.0000  0.0000
15486SI     SI115486   3.568   1.261   0.175  0.0000  0.0000  0.0000
15487SI     SI115487   0.609   3.194   8.349  0.0000  0.0000  0.0000
15488SI     SI115488   2.042   0.962   0.352  0.0000  0.0000  0.0000
15489SI     SI115489   8.987   0.069   0.266  0.0000  0.0000  0.0000
15490SI     SI115490   5.805   2.547   9.255  0.0000  0.0000  0.0000
15491SI     SI115491   0.887   7.927   8.621  0.0000  0.0000  0.0000
15492SI     SI115492   3.715   0.286   0.108  0.0000  0.0000  0.0000
15493SI     SI115493   8.945   2.220   0.903  0.0000  0.0000  0.0000
15494SI     SI115494   6.700   4.757   0.460  0.0000  0.0000  0.0000
15495SI     SI115495   4.564   5.270   0.623  0.0000  0.0000  0.0000
15496SI     SI115496   9.099   2.673   0.905  0.0000  0.0000  0.0000
15497SI     SI115497   4.731   3.017   0.869  0.0000  0.0000  0.0000
15498SI     SI115498   3.635   3.964   9.477  0.0000  0.0000  0.0000
15499SI     SI115499   7.990   4.930   1.251  0.0000  0.0000  0.0000
15500SI     SI115500   9.371   2.762   9.142  0.0000  0.0000  0.0000
15501SI     SI115501   1.855   6.188   0.044  0.0000  0.0000  0.0000
15502SI     SI115502   7.672   3.687   8.607  0.0000  0.0000  0.0000
15503SI     SI115503   4.067   2.135   0.937  0.0000  0.0000  0.0000
15504SI     SI115504   6.849   0.690   8.318  0.0000  0.0000  0.0000
15505SI     SI115505   7.394   6.593   9.529  0.0000  0.0000  0.0000
15506SI     SI115506   6.428   2.742   1.013  0.0000  0.0000  0.0000
15507SI     SI115507   6.392   7.780   0.911  0.0000  0.0000  0.0000
15508SI     SI115508   0.860   9.097   8.816  0.0000  0.0000  0.0000
15509SI     SI115509   6.670   0.933   9.186  0.0000  0.0000  0.0000
15510SI     SI115510   1.075   4.926   8.877  0.0000  0.0000  0.0000
15511SI     SI115511   7.567   0.385   9.450  0.0000  0.0000  0.0000
15512SI     SI115512   2.728   6.249   9.036  0.0000  0.0000  0.0000
15513SI     SI115513   8.446   8.994   9.543  0.0000  0.0000  0.0000
15514SI     SI115514   2.221   1.430   9.392  0.0000  0.0000  0.0000
15515SI     SI115515   1.820   6.928   9.024  0.0000  0.0000  0.0000
15516SI     SI115516   7.536   2.916   9.088  0.0000  0.0000  0.0000
15517SI     SI115517   0.766   2.549   0.658  0.0000  0.0000  0.0000
15518SI     SI115518   4.328   9.237   0.530  0.0000  0.0000  0.0000
15519SI     SI115519   3.063   3.010   0.585  0.0000  0.0000  0.0000
15520SI     SI115520   6.263   8.503   9.556  0.0000  0.0000  0.0000
15521SI     SI115521   3.098   4.896   8.803  0.0000  0.0000  0.0000
15522SI     SI115522   4.208   0.662   1.099  0.0000  0.0000  0.0000
15523SI     SI115523   6.454   5.063   9.074  0.0000  0.0000  0.0000
15524SI     SI115524   4.929   8.423   1.005  0.0000  0.0000  0.0000
15525SI     SI115525   8.132   5.160   8.847  0.0000  0.0000  0.0000
15526SI     SI115526   4.144   9.228   8.471  0.0000  0.0000  0.0000
15527SI     SI115527   4.681   1.702   8.707  0.0000  0.0000  0.0000
15528SI     SI115528   7.463   6.814   8.684  0.0000  0.0000  0.0000
15529SI     SI115529   5.989   0.896   9.082  0.0000  0.0000  0.0000
15530SI     SI115530   6.507   4.359   0.907  0.0000  0.0000  0.0000
15531SI     SI115531   1.678   2.972   9.317  0.0000  0.0000  0.0000
15532SI     SI115532   3.280   8.588   0.903  0.0000  0.0000  0.0000
15533SI     SI115533   6.716   2.844   1.088  0.0000  0.0000  0.0000
15534SI     SI115534   1.868   1.199   1.371  0.0000  0.0000  0.0000
15535SI     SI115535   7.374   0.173   8.535  0.0000  0.0000  0.0000
15536SI     SI115536   3.870   1.891   8.975  0.0000  0.0000  0.0000
15537SI     SI115537   8.660   1.911   0.580  0.0000  0.0000  0.0000
15538SI     SI115538   7.989   6.174   8.265  0.0000  0.0000  0.0000
15539SI     SI115539   9.100   9.030   1.196  0.0000  0.0000  0.0000
15540SI     SI115540   7.697   4.157   9.267  0.0000  0.0000  0.0000
15541SI     SI115541   6.105   4.230   0.369  0.0000  0.0000  0.0000
15542SI     SI115542   5.309   3.093   8.547  0.0000  0.0000  0.0000
15543SI     SI115543   7.390   0.756   1.018  0.0000  0.0000  0.0000
15544SI     SI115544   1.424   4.570   0.223  0.0000  0.0000  0.0000
15545SI     SI115545   0.520   7.730   9.443  0.0000  0.0000  0.0000
15546SI     SI115546   4.643   4.399   9.135  0.0000  0.0000  0.0000
15547SI     SI115547   4.804   2.129   0.190  0.0000  0.0000  0.0000
15548SI     SI115548   2.149   8.375   8.917  0.0000  0.0000  0.0000
15549SI     SI115549   3.142   2.365   1.179  0.0000  0.0000  0.0000
15550SI     SI115550   2.601   3.820   9.154  0.0000  0.0000  0.0000
15551SI     SI115551   3.961   6.661   8.428  0.0000  0.0000  0.0000
15552SI     SI115552   0.652   6.484   8.336  0.0000  0.0000  0.0000
15553SI     SI115553   9.520   3.929   9.205  0.0000  0.0000  0.0000
15554SI     SI115554   7.492   0.491   1.150  0.0000  0.0000  0.0000
15555SI     SI115555   3.931   9.411   8.828  0.0000  0.0000  0.0000
15556SI     SI115556   9.280   2.398   8.842  0.0000  0.0000  0.0000
15557SI     SI115557   9.347   2.481   0.941  0.0000  0.0000  0.0000
15558SI     SI115558   5.714   6.984   9.340  0.0000  0.0000  0.0000
15559SI     SI115559   1.737   4.835   8.600  0.0000  0.0000  0.0000
15560SI     SI115560   0.272   4.457   0.284  0.0000  0.0000  0.0000
15561SI     SI115561   0.386   0.696   9.162  0.0000  0.0000  0.0000
15562SI     SI115562   0.618   7.761   1.060  0.0000  0.0000  0.0000
15563SI     SI115563   2.266   5.964   1.368  0.0000  0.0000  0.0000
15564SI     SI115564   3.152   9.249   0.539  0.0000  0.0000  0.0000
15565SI     SI115565   9.281   2.019   1.186  0.0000  0.0000  0.0000
15566SI     SI115566   0.041   0.582   0.730  0.0000  0.0000  0.0000
15567SI     SI115567   6.039   6.526   0.925  0.0000  0.0000  0.0000
15568SI     SI115568   6.084   4.159   8.525  0.0000  0.0000  0.0000
15569SI     SI115569   4.780   2.487   0.952  0.0000  0.0000  0.0000
15570SI     SI115570   1.873   8.941   8.967  0.0000  0.0000  0.0000
15571SI     SI115571   8.565   6.500   0.017  0.0000  0.0000  0.0000
15572SI     SI115572   9.353   5.143   0.815  0.0000  0.0000  0.0000
15573SI     SI115573   2.203   6.814   0.242  0.0000  0.0000  0.0000
15574SI     SI115574   6.156   2.785   1.176  0.0000  0.0000  0.0000
15575SI     SI115575   6.465   1.440   1.381  0.0000  0.0000  0.0000
15576SI     SI115576   3.282   3.100   9.592  0.0000  0.0000  0.0000
15577SI     SI115577   7.255   0.728   9.294  0.0000  0.0000  0.0000
15578SI     SI115578   3.040   5.191   8.840  0.0000  0.0000  0.0000
15579SI     SI115579   7.723   5.034   1.134  0.0000  0.0000  0.0000
15580SI     SI115580   8.662   5.356   0.227  0.0000  0.0000  0.0000
15581SI     SI115581   2.661   4.731   8.527  0.0000  0.0000  0.0000
15582SI     SI115582   9.147   0.648   0.097  0.0000  0.0000  0.0000
15583SI     SI115583   0.524   7.101   1.279  0.0000  0.0000  0.0000
15584SI     SI115584   1.845   8.425   8.835  0.0000  0.0000  0.0000
15585SI     SI115585   8.223   1.132   0.292  0.0000  0.0000  0.0000
15586SI     SI115586   2.162   7.703   0.975  0.0000  0.0000  0.0000
15587SI     SI115587   3.002   3.176   8.545  0.0000  0.0000  0.0000
15588SI     SI115588   1.438   6.768   9.083  0.0000  0.0000  0.0000
15589SI     SI115589   9.050   5.947   0.748  0.0000  0.0000  0.0000
15590SI     SI115590   5.742   8.457   8.342  0.0000  0.0000  0.0000
15591SI     SI115591   7.413   7.731   8.786  0.0000  0.0000  0.0000
15592SI     SI115592   0.166   2.735   1.236  0.0000  0.0000  0.0000
15593SI     SI115593   6.761   6.314   1.400  0.0000  0.0000  0.0000
15594SI     SI115594   6.119   5.253   0.098  0.0000  0.0000  0.0000
15595SI     SI115595   5.486   2.569   8.659  0.0000  0.0000  0.0000
15596SI     SI115596   5.879   2.713   1.145  0.0000  0.0000  0.0000
15597SI     SI115597   1.205   9.048   9.277  0.0000  0.0000  0.0000
15598SI     SI115598   0.152   0.365   0.906  0.0000  0.0000  0.0000
15599SI     SI115599   7.417   4.182   0.087  0.0000  0.0000  0.0000
15600SI     SI115600   6.249   3.046   0.357  0.0000  0.0000  0.0000
15601SI     SI115601   6.737   0.650   9.048  0.0000  0.0000  0.0000
15602SI     SI115602   8.283   5.531   9.176  0.0000  0.0000  0.0000
15603SI     SI115603   2.649   2.230   9.582  0.0000  0.0000  0.0000
15604SI     SI115604   8.979   3.743   1.309  0.0000  0.0000  0.0000
15605SI     SI115605   4.734   8.974   9.115  0.0000  0.0000  0.0000
15606SI     SI115606   6.680   6.460   0.612  0.0000  0.0000  0.0000
15607SI     SI115607   9.356   8.440   9.169  0.0000  0.0000  0.0000
15608SI     SI115608   4.310   6.254   9.168  0.0000  0.0000  0.0000
15609SI     SI115609   1.559   7.060   9.106  0.0000  0.0000  0.0000
15610SI     SI115610   4.034   5.540   0.178  0.0000  0.0000  0.0000
15611SI     SI115611   6.469   6.120   1.153  0.0000  0.0000  0.0000
15612SI     SI115612   6.805   3.249   8.981  0.0000  0.0000  0.0000
15613SI     SI115613   0.668   1.007   0.857  0.0000  0.0000  0.0000
15614SI     SI115614   1.401   1.717   0.810  0.0000  0.0000  0.0000
15615SI     SI115615   0.142   4.840   9.447  0.0000  0.0000  0.0000
15616SI     SI115616   8.042   2.852   1.103  0.0000  0.0000  0.0000
15617SI     SI115617   2.348   7.248   9.469  0.0000  0.0000  0.0000
15618SI     SI115618   3.683   0.348   1.017  0.0000  0.0000  0.0000
15619SI     SI115619   3.034   6.659   1.153  0.0000  0.0000  0.0000
15620SI     SI115620   8.045   7.591   0.200  0.0000  0.0000  0.0000
15621SI     SI115621   8.487   3.219   1.130  0.0000  0.0000  0.0000
15622SI     SI115622   0.416   0.815   0.869  0.0000  0.0000  0.0000
15623SI     SI115623   7.043   8.782   0.427  0.0000  0.0000  0.0000
15624SI     SI115624   7.068   4.440   8.835  0.0000  0.0000  0.0000
15625SI     SI115625   7.304   6.902   0.847  0.0000  0.0000  0.0000
15626SI     SI115626   5.997   4.859   0.441  0.0000  0.0000  0.0000
15627SI     SI115627   0.528   3.360   8.795  0.0000  0.0000  0.0000
15628SI     SI115628   5.442   7.745   9.562  0.0000  0.0000  0.0000
15629SI     SI115629   4.132   9.436   0.889  0.0000  0.0000  0.0000
15630SI     SI115630   2.809   3.681   0.770  0.0000  0.0000  0.0000
15631SI     SI115631   3.337   0.775   8.979  0.0000  0.0000  0.0000
15632SI     SI115632   8.906   9.174   1.003  0.0000  0.0000  0.0000
15633SI     SI115633   7.463   8.952   8.989  0.0000  0.0000  0.0000
15634SI     SI115634   6.747   3.290   9.270  0.0000  0.0000  0.0000
15635SI     SI115635   0.478   2.920   0.898  0.0000  0.0000  0.0000
15636SI     SI115636   9.192   6.095   8.365  0.0000  0.0000  0.0000
15637SI     SI115637   2.051   2.691   8.513  0.0000  0.0000  0.0000
15638SI     SI115638   7.991   3.412   9.467  0.0000  0.0000  0.0000
15639SI     SI115639   3.987   1.683   8.523  0.0000  0.0000  0.0000
15640SI     SI115640   2.112   8.616   0.344  0.0000  0.0000  0.0000
15641SI     SI115641   8.206   1.660   8.517  0.0000  0.0000  0.0000
15642SI     SI115642   3.033   3.280   8.844  0.0000  0.0000  0.0000
15643SI     SI115643   4.868   5.071   8.731  0.0000  0.0000  0.0000
15644SI     SI115644   7.203   6.886   8.538  0.0000  0.0000  0.0000
15645SI     SI115645   5.915   1.455   0.102  0.0000  0.0000  0.0000
15646SI     SI115646   6.688   4.217   1.129  0.0000  0.0000  0.0000
15647SI     SI115647   4.799   3.462   8.695  0.0000  0.0000  0.0000
15648SI     SI115648   0.749   7.942   9.040  0.0000  0.0000  0.0000
15649SI     SI115649   6.281   6.593   1.099  0.0000  0.0000  0.0000
15650SI     SI115650   4.464   1.837   0.845  0.0000  0.0000  0.0000
15651SI     SI115651   4.645   2.675   9.120  0.0000  0.0000  0.0000
15652SI     SI115652   2.422   6.222   9.052  0.0000  0.0000  0.0000
15653SI     SI115653   4.632   6.623   9.445  0.0000  0.0000  0.0000
15654SI     SI115654   1.421   7.600   8.635  0.0000  0.0000  0.0000
15655SI     SI115655   0.239   3.117   0.870  0.0000  0.0000  0.0000
15656SI     SI115656   5.618   5.690   8.974  0.0000  0.0000  0.0000
15657SI     SI115657   6.880   7.576   9.563  0.0000  0.0000  0.0000
15658SI     SI115658   4.771   5.723   0.483  0.0000  0.0000  0.0000
15659SI     SI115659   0.339   6.349   0.776  0.0000  0.0000  0.0000
15660SI     SI115660   8.704   5.177   1.074  0.0000  0.0000  0.0000
15661SI     SI115661   3.229   1.220   0.558  0.0000  0.0000  0.0000
15662SI     SI115662   3.741   1.674   0.184  0.0000  0.0000  0.0000
15663SI     SI115663   8.641   6.077   0.492  0.0000  0.0000  0.0000
15664SI     SI115664   0.819   8.282   0.558  0.0000  0.0000  0.0000
15665SI     SI115665   2.204   6.829   9.201  0.0000  0.0000  0.0000
15666SI     SI115666   7.127   0.048   9.343  0.0000  0.0000  0.0000
15667SI     SI115667   1.035   4.270   8.577  0.0000  0.0000  0.0000
15668SI     SI115668   3.421   6.224   8.753  0.0000  0.0000  0.0000
15669SI     SI115669   3.611   2.493   0.192  0.0000  0.0000  0.0000
15670SI     SI115670   1.204   6.544   8.650  0.0000  0.0000  0.0000
15671SI     SI115671   8.061   7.353   1.172  0.0000  0.0000  0.0000
15672SI     SI115672   5.049   5.685   0.367  0.0000  0.0000  0.0000
15673SI     SI115673   4.919   3.057   0.151  0.0000  0.0000  0.0000
15674SI     SI115674   5.298   6.762   8.945  0.0000  0.0000  0.0000
15675SI     SI115675   8.648   1.239   9.192  0.0000  0.0000  0.0000
15676SI     SI115676   1.397   0.167   8.295  0.0000  0.0000  0.0000
15677SI     SI115677   1.833   4.309   0.337  0.0000  0.0000  0.0000
15678SI     SI115678   7.051   2.819   8.650  0.0000  0.0000  0.0000
15679SI     SI115679   7.872   1.392   0.887  0.0000  0.0000  0.0000
15680SI     SI115680   5.288   6.808   1.262  0.0000  0.0000  0.0000
15681SI     SI115681   9.296   7.722   8.747  0.0000  0.0000  0.0000
15682SI     SI115682   4.672   7.873   0.895  0.0000  0.0000  0.0000
15683SI     SI115683   6.028   0.981   0.238  0.0000  0.0000  0.0000
15684SI     SI115684   6.616   7.198   9.003  0.0000  0.0000  0.0000
15685SI     SI115685   7.482   1.866   9.089  0.0000  0.0000  0.0000
15686SI     SI115686   5.028   0.102   0.408  0.0000  0.0000  0.0000
15687SI     SI115687   4.332   1.331   0.013  0.0000  0.0000  0.0000
15688SI     SI115688   9.312   7.975   9.145  0.0000  0.0000  0.0000
15689SI     SI115689   6.691   7.909   9.213  0.0000  0.0000  0.0000
15690SI     SI115690   5.948   7.899   8.843  0.0000  0.0000  0.0000
15691SI     SI115691   2.375   5.567   0.134  0.0000  0.0000  0.0000
15692SI     SI115692   4.977   3.309   9.305  0.0000  0.0000  0.0000
15693SI     SI115693   0.740   5.950   1.384  0.0000  0.0000  0.0000
15694SI     SI115694   5.164   9.576   8.860  0.0000  0.0000  0.0000
15695SI     SI115695   1.477   7.295   0.237  0.0000  0.0000  0.0000
15696SI     SI115696   1.802   6.230   9.350  0.0000  0.0000  0.0000
15697SI     SI115697   8.430   5.034   0.065  0.0000  0.0000  0.0000
15698SI     SI115698   7.716   7.818   9.433  0.0000  0.0000  0.0000
15699SI     SI115699   7.963   4.308   0.230  0.0000  0.0000  0.0000
15700SI     SI115700   4.086   3.011   8.500  0.0000  0.0000  0.0000
15701SI     SI115701   3.866   2.471   0.711  0.0000  0.0000  0.0000
15702SI     SI115702   0.254   7.113   0.396  0.0000  0.0000  0.0000
15703SI     SI115703   5.772   8.529   9.103  0.0000  0.0000  0.0000
15704SI     SI115704   4.680   3.231   8.860  0.0000  0.0000  0.0000
15705SI     SI115705   2.256   8.656   1.213  0.0000  0.0000  0.0000
15706SI     SI115706   0.442   1.565   0.067  0.0000  0.0000  0.0000
15707SI     SI115707   4.507   8.340   0.299  0.0000  0.0000  0.0000
15708SI     SI115708   1.679   3.062   0.168  0.0000  0.0000  0.0000
15709SI     SI115709   7.478   4.962   8.378  0.0000  0.0000  0.0000
15710SI     SI115710   6.074   2.151   0.049  0.0000  0.0000  0.0000
15711SI     SI115711   8.396   6.203   8.839  0.0000  0.0000  0.0000
15712SI     SI115712   0.536   6.889   0.741  0.0000  0.0000  0.0000
15713SI     SI115713   3.367   7.526   1.213  0.0000  0.0000  0.0000
15714SI     SI115714   0.281   1.483   1.091  0.0000  0.0000  0.0000
15715SI     SI115715   0.108   8.675   9.472  0.0000  0.0000  0.0000
15716SI     SI115716   9.447   4.192   9.366  0.0000  0.0000  0.0000
15717SI     SI115717   1.153   1.914   0.762  0.0000  0.0000  0.0000
15718SI     SI115718   9.168   2.857   0.113  0.0000  0.0000  0.0000
15719SI     SI115719   7.780   3.708   9.071  0.0000  0.0000  0.0000
15720SI     SI115720   8.589   3.672   9.380  0.0000  0.0000  0.0000
15721SI     SI115721   3.506   1.260   8.869  0.0000  0.0000  0.0000
15722SI     SI115722   5.937   5.075   0.839  0.0000  0.0000  0.0000
15723SI     SI115723   1.163   7.037   0.530  0.0000  0.0000  0.0000
15724SI     SI115724   4.511   2.493   9.343  0.0000  0.0000  0.0000
15725SI     SI115725   7.535   7.033   0.423  0.0000  0.0000  0.0000
15726SI     SI115726   9.212   3.947   0.552  0.0000  0.0000  0.0000
15727SI     SI115727   1.004   4.738   0.546  0.0000  0.0000  0.0000
15728SI     SI115728   2.003   8.420   0.123  0.0000  0.0000  0.0000
15729SI     SI115729   4.998   0.478   0.017  0.0000  0.0000  0.0000
15730SI     SI115730   4.098   5.576   0.666  0.0000  0.0000  0.0000
15731SI     SI115731   1.288   3.887   9.275  0.0000  0.0000  0.0000
15732SI     SI115732   4.377   4.264   0.832  0.0000  0.0000  0.0000
15733SI     SI115733   8.675   6.980   8.546  0.0000  0.0000  0.0000
15734SI     SI115734   1.983   2.725   9.017  0.0000  0.0000  0.0000
15735SI     SI115735   6.896   3.934   9.050  0.0000  0.0000  0.0000
15736SI     SI115736   8.428   9.312   9.169  0.0000  0.0000  0.0000
15737SI     SI115737   6.337   8.880   0.624  0.0000  0.0000  0.0000
15738SI     SI115738   2.819   4.709   0.110  0.0000  0.0000  0.0000
15739SI     SI115739   4.740   3.212   0.623  0.0000  0.0000  0.0000
15740SI     SI115740   3.497   4.061   0.505  0.0000  0.0000  0.0000
15741SI     SI115741   3.559   2.110   1.011  0.0000  0.0000  0.0000
15742SI     SI115742   3.152   3.129   9.093  0.0000  0.0000  0.0000
15743SI     SI115743   1.088   5.684   0.914  0.0000  0.0000  0.0000
15744SI     SI115744   2.169   7.275   8.972  0.0000  0.0000  0.0000
15745SI     SI115745   8.031   9.475   0.887  0.0000  0.0000  0.0000
15746SI     SI115746   0.445   7.120   9.228  0.0000  0.0000  0.0000
15747SI     SI115747   2.150   2.043   0.655  0.0000  0.0000  0.0000
15748SI     SI115748   2.473   8.501   0.069  0.0000  0.0000  0.0000
15749SI     SI115749   4.003   2.737   0.342  0.0000  0.0000  0.0000
15750SI     SI115750   7.736   3.976   0.930  0.0000  0.0000  0.0000
15751SI     SI115751   2.128   6.004   8.766  0.0000  0.0000  0.0000
15752SI     SI115752   3.213   6.432   8.858  0.0000  0.0000  0.0000
15753SI     SI115753   8.604   5.597   0.407  0.0000  0.0000  0.0000
15754SI     SI115754   7.758   7.453   0.155  0.0000  0.0000  0.0000
15755SI     SI115755   2.825   8.832   0.120  0.0000  0.0000  0.0000
15756SI     SI115756   5.461   3.090   0.026  0.0000  0.0000  0.0000
15757SI     SI115757   5.539   4.609   9.444  0.0000  0.0000  0.0000
15758SI     SI115758   9.205   5.979   8.928  0.0000  0.0000  0.0000
15759SI     SI115759   2.334   4.200   0.544  0.0000  0.0000  0.0000
15760SI     SI115760   8.705   8.210   0.381  0.0000  0.0000  0.0000
15761SI     SI115761   0.548   5.404   0.386  0.0000  0.0000  0.0000
15762SI     SI115762   0.364   0.751   1.152  0.0000  0.0000  0.0000
15763SI     SI115763   5.421   3.626   1.079  0.0000  0.0000  0.0000
15764SI     SI115764   9.602   0.985   9.036  0.0000  0.0000  0.0000
15765SI     SI115765   5.010   8.847   9.108  0.0000  0.0000  0.0000
15766SI     SI115766   2.013   2.051   8.700  0.0000  0.0000  0.0000
15767SI     SI115767   1.225   7.486   8.859  0.0000  0.0000  0.0000
15768SI     SI115768   6.764   6.422   0.910  0.0000  0.0000  0.0000
15769SI     SI115769   9.078   4.829   8.393  0.0000  0.0000  0.0000
15770SI     SI115770   2.930   8.868   8.578  0.0000  0.0000  0.0000
15771SI     SI115771   7.186   8.045   0.949  0.0000  0.0000  0.0000
15772SI     SI115772   4.125   1.547   0.977  0.0000  0.0000  0.0000
15773SI     SI115773   5.274   4.132   9.494  0.0000  0.0000  0.0000
15774SI     SI115774   7.478   3.285   8.509  0.0000  0.0000  0.0000
15775SI     SI115775   2.679   5.709   1.383  0.0000  0.0000  0.0000
15776SI     SI115776   2.251   3.750   9.491  0.0000  0.0000  0.0000
15777SI     SI115777   5.014   6.077   0.752  0.0000  0.0000  0.0000
15778SI     SI115778   5.815   4.590   9.308  0.0000  0.0000  0.0000
15779SI     SI115779   8.189   2.026   8.837  0.0000  0.0000  0.0000
15780SI     SI115780   2.502   5.936   9.027  0.0000  0.0000  0.0000
15781SI     SI115781   4.065   5.752   0.407  0.0000  0.0000  0.0000
15782SI     SI115782   1.223   4.061   8.834  0.0000  0.0000  0.0000
15783SI     SI115783   3.556   0.310   9.127  0.0000  0.0000  0.0000
15784SI     SI115784   4.613   0.612   8.873  0.0000  0.0000  0.0000
15785SI     SI115785   0.657   0.076   8.534  0.0000  0.0000  0.0000
15786SI     SI115786   3.212   0.342   0.251  0.0000  0.0000  0.0000
15787SI     SI115787   6.375   8.086   0.937  0.0000  0.0000  0.0000
15788SI     SI115788   3.515   0.368   0.331  0.0000  0.0000  0.0000
15789SI     SI115789   7.246   5.597   9.221  0.0000  0.0000  0.0000
15790SI     SI115790   5.181   5.451   8.804  0.0000  0.0000  0.0000
15791SI     SI115791   7.210   1.434   0.314  0.0000  0.0000  0.0000
15792SI     SI115792   2.195   4.992   0.490  0.0000  0.0000  0.0000
15793SI     SI115793   9.594   7.417   0.718  0.0000  0.0000  0.0000
15794SI     SI115794   9.174   7.265   1.066  0.0000  0.0000  0.0000
15795SI     SI115795   2.797   1.608   0.436  0.0000  0.0000  0.0000
15796SI     SI115796   4.630   7.644   1.096  0.0000  0.0000  0.0000
15797SI     SI115797   6.850   5.636   0.750  0.0000  0.0000  0.0000
15798SI     SI115798   6.573   8.734   9.262  0.0000  0.0000  0.0000
15799SI     SI115799   6.373   6.210   9.093  0.0000  0.0000  0.0000
15800SI     SI115800   0.616   0.114   8.842  0.0000  0.0000  0.0000
15801SI     SI115801   5.766   4.819   8.431  0.0000  0.0000  0.0000
15802SI     SI115802   0.990   9.360   0.263  0.0000  0.0000  0.0000
15803SI     SI115803   5.087   8.025   8.725  0.0000  0.0000  0.0000
15804SI     SI115804   0.158   2.518   0.775  0.0000  0.0000  0.0000
15805SI     SI115805   0.020   3.989   8.361  0.0000  0.0000  0.0000
15806SI     SI115806   1.789   9.378   0.786  0.0000  0.0000  0.0000
15807SI     SI115807   0.190   5.696   9.121  0.0000  0.0000  0.0000
15808SI     SI115808   0.000   0.542   0.418  0.0000  0.0000  0.0000
15809SI     SI115809   4.716   3.980   8.873  0.0000  0.0000  0.0000
15810SI     SI115810   8.667   6.789   1.064  0.0000  0.0000  0.0000
15811SI     SI115811   7.274   2.475   0.262  0.0000  0.0000  0.0000
15812SI     SI115812   8.019   1.043   8.748  0.0000  0.0000  0.0000
15813SI     SI115813   5.658   3.414   1.054  0.0000  0.0000  0.0000
15814SI     SI115814   3.355   1.093   8.326  0.0000  0.0000  0.0000
15815SI     SI115815   0.061   4.443   0.072  0.0000  0.0000  0.0000
15816SI     SI115816   0.123   5.891   9.356  0.0000  0.0000  0.0000
15817SI     SI115817   7.831   1.627   8.860  0.0000  0.0000  0.0000
15818SI     SI115818   2.267   5.759   8.629  0.0000  0.0000  0.0000
15819SI     SI115819   5.710   5.999   8.499  0.0000  0.0000  0.0000
15820SI     SI115820   3.751   7.265   0.561  0.0000  0.0000  0.0000
15821SI     SI115821   4.681   1.717   0.447  0.0000  0.0000  0.0000
15822SI     SI115822   0.327   5.887   8.921  0.0000  0.0000  0.0000
15823SI     SI115823   9.519   0.626   1.320  0.0000  0.0000  0.0000
15824SI     SI115824   4.346   3.904   9.228  0.0000  0.0000  0.0000
15825SI     SI115825   5.463   5.925   0.655  0.0000  0.0000  0.0000
15826SI     SI115826   6.084   7.275   0.549  0.0000  0.0000  0.0000
15827SI     SI115827   1.720   6.213   0.453  0.0000  0.0000  0.0000
15828SI     SI115828   2.219   0.443   9.278  0.0000  0.0000  0.0000
15829SI     SI115829   8.050   6.346   8.512  0.0000  0.0000  0.0000
15830SI     SI115830   7.370   6.304   0.350  0.0000  0.0000  0.0000
15831SI     SI115831   0.397   1.168   8.630  0.0000  0.0000  0.0000
15832SI     SI115832   9.138   4.328   0.403  0.0000  0.0000  0.0000
15833SI     SI115833   0.375   2.669   8.627  0.0000  0.0000  0.0000
15834SI     SI115834   9.278   8.962   9.592  0.0000  0.0000  0.0000
15835SI     SI115835   3.641   2.112   8.975  0.0000  0.0000  0.0000
15836SI     SI115836   3.935   3.590   9.414  0.0000  0.0000  0.0000
15837SI     SI115837   8.260   7.513   9.295  0.0000  0.0000  0.0000
15838SI     SI115838   4.039   9.119   9.586  0.0000  0.0000  0.0000
15839SI     SI115839   9.345   5.621   9.484  0.0000  0.0000  0.0000
15840SI     SI115840   4.655   7.724   8.584  0.0000  0.0000  0.0000
15841SI     SI115841   9.236   4.517   0.825  0.0000  0.0000  0.0000
15842SI     SI115842   1.123   6.743   9.102  0.0000  0.0000  0.0000
15843SI     SI115843   6.851   8.368   0.228  0.0000  0.0000  0.0000
15844SI     SI115844   7.082   5.611   8.709  0.0000  0.0000  0.0000
15845SI     SI115845   4.634   6.317   8.476  0.0000  0.0000  0.0000
15846SI     SI115846   7.543   0.544   8.882  0.0000  0.0000  0.0000
15847SI     SI115847   0.829   0.706   0.351  0.0000  0.0000  0.0000
15848SI     SI115848   7.572   4.119   8.791  0.0000  0.0000  0.0000
15849SI     SI115849   1.220   2.704   0.918  0.0000  0.0000  0.0000
15850SI     SI115850   6.714   9.188   8.856  0.0000  0.0000  0.0000
15851SI     SI115851   1.027   2.645   8.729  0.0000  0.0000  0.0000
15852SI     SI115852   2.335   1.208   8.284  0.0000  0.0000  0.0000
15853SI     SI115853   9.211   8.548   8.710  0.0000  0.0000  0.0000
15854SI     SI115854   1.269   8.275   0.447  0.0000  0.0000  0.0000
15855SI     SI115855   1.056   5.454   8.564  0.0000  0.0000  0.0000
15856SI     SI115856   2.826   1.876   8.974  0.0000  0.0000  0.0000
15857SI     SI115857   1.946   2.832   9.303  0.0000  0.0000  0.0000
15858SI     SI115858   5.882   5.695   8.823  0.0000  0.0000  0.0000
15859SI     SI115859   4.416   2.613   0.560  0.0000  0.0000  0.0000
15860SI     SI115860   8.327   0.461   8.519  0.0000  0.0000  0.0000
15861SI     SI115861   1.301   3.471   8.732  0.0000  0.0000  0.0000
15862SI     SI115862   0.129   4.402   0.839  0.0000  0.0000  0.0000
15863SI     SI115863   8.256   2.496   8.687  0.0000  0.0000  0.0000
15864SI     SI115864   1.015   0.389   0.660  0.0000  0.0000  0.0000
15865SI     SI115865   8.039   6.769   8.653  0.0000  0.0000  0.0000
15866SI     SI115866   3.363   7.292   0.435  0.0000  0.0000  0.0000
15867SI     SI115867   1.254   8.495   8.795  0.0000  0.0000  0.0000
15868SI     SI115868   3.107   8.024   0.485  0.0000  0.0000  0.0000
15869SI     SI115869   9.045   0.074   9.115  0.0000  0.0000  0.0000
15870SI     SI115870   0.974   4.168   8.993  0.0000  0.0000  0.0000
15871SI     SI115871   2.071   8.854   8.252  0.0000  0.0000  0.0000
15872SI     SI115872   6.536   3.840   0.849  0.0000  0.0000  0.0000
15873SI     SI115873   5.459   0.332   8.671  0.0000  0.0000  0.0000
15874SI     SI115874   4.772   1.058   0.795  0.0000  0.0000  0.0000
15875SI     SI115875   3.756   1.595   8.971  0.0000  0.0000  0.0000
15876SI     SI115876   4.396   2.208   9.316  0.0000  0.0000  0.0000
15877SI     SI115877   3.518   1.396   9.504  0.0000  0.0000  0.0000
15878SI     SI115878   4.886   3.674   8.286  0.0000  0.0000  0.0000
15879SI     SI115879   0.846   5.660   8.460  0.0000  0.0000  0.0000
15880SI     SI115880   3.008   5.608   8.247  0.0000  0.0000  0.0000
15881SI     SI115881   3.224   6.271   0.010  0.0000  0.0000  0.0000
15882SI     SI115882   9.160   7.118   0.633  0.0000  0.0000  0.0000
15883SI     SI115883   6.112   4.334   8.788  0.0000  0.0000  0.0000
15884SI     SI115884   5.874   8.871   9.552  0.0000  0.0000  0.0000
15885SI     SI115885   7.269   9.310   0.437  0.0000  0.0000  0.0000
15886SI     SI115886   4.101   7.158   1.025  0.0000  0.0000  0.0000
15887SI     SI115887   1.386   1.678   8.652  0.0000  0.0000  0.0000
15888SI     SI115888   7.768   6.578   0.631  0.0000  0.0000  0.0000
15889SI     SI115889   8.094   2.922   0.009  0.0000  0.0000  0.0000
15890SI     SI115890   2.382   2.266   8.671  0.0000  0.0000  0.0000
15891SI     SI115891   6.799   8.539   0.708  0.0000  0.0000  0.0000
15892SI     SI115892   8.504   6.475   8.824  0.0000  0.0000  0.0000
15893SI     SI115893   5.864   3.515   0.837  0.0000  0.0000  0.0000
15894SI     SI115894   3.321   4.471   1.004  0.0000  0.0000  0.0000
15895SI     SI115895   7.932   4.453   0.992  0.0000  0.0000  0.0000
15896SI     SI115896   1.749   5.727   9.291  0.0000  0.0000  0.0000
15897SI     SI115897   3.711   5.822   8.864  0.0000  0.0000  0.0000
15898SI     SI115898   0.131   5.769   0.028  0.0000  0.0000  0.0000
15899SI     SI115899   5.937   3.269   8.590  0.0000  0.0000  0.0000
15900SI     SI115900   4.550   9.594   8.555  0.0000  0.0000  0.0000
15901SI     SI115901   3.880   5.447   8.981  0.0000  0.0000  0.0000
15902SI     SI115902   8.222   8.624   1.280  0.0000  0.0000  0.0000
15903SI     SI115903   4.640   2.230   0.614  0.0000  0.0000  0.0000
15904SI     SI115904   8.797   9.013   0.392  0.0000  0.0000  0.0000
15905SI     SI115905   4.474   8.463   8.437  0.0000  0.0000  0.0000
15906SI     SI115906   6.314   2.349   9.238  0.0000  0.0000  0.0000
15907SI     SI115907   5.178   1.499   0.360  0.0000  0.0000  0.0000
15908SI     SI115908   2.532   9.328   9.305  0.0000  0.0000  0.0000
15909SI     SI115909   0.227   7.272   0.836  0.0000  0.0000  0.0000
15910SI     SI115910   3.434   7.461   0.923  0.0000  0.0000  0.0000
15911SI     SI115911   1.217   5.422   0.919  0.0000  0.0000  0.0000
15912SI     SI115912   4.823   4.166   9.248  0.0000  0.0000  0.0000
15913SI     SI115913   4.912   9.563   0.858  0.0000  0.0000  0.0000
15914SI     SI115914   2.004   3.816   0.570  0.0000  0.0000  0.0000
15915SI     SI115915   4.686   9.502   9.062  0.0000  0.0000  0.0000
15916SI     SI115916   0.662   3.479   8.292  0.0000  0.0000  0.0000
15917SI     SI115917   6.159   1.896   0.221  0.0000  0.0000  0.0000
15918SI     SI115918   3.155   5.283   0.213  0.0000  0.0000  0.0000
15919SI     SI115919   3.689   5.258   9.529  0.0000  0.0000  0.0000
15920SI     SI115920   9.293   9.230   1.342  0.0000  0.0000  0.0000
15921SI     SI115921   1.646   6.913   8.590  0.0000  0.0000  0.0000
15922SI     SI115922   4.785   3.655   9.263  0.0000  0.0000  0.0000
15923SI     SI115923   5.264   1.746   0.880  0.0000  0.0000  0.0000
15924SI     SI115924   7.086   6.612   8.467  0.0000  0.0000  0.0000
15925SI     SI115925   5.503   2.225   8.320  0.0000  0.0000  0.0000
15926SI     SI115926   4.768   7.738   0.463  0.0000  0.0000  0.0000
15927SI     SI115927   3.829   6.318   9.120  0.0000  0.0000  0.0000
15928SI     SI115928   8.682   3.750   0.973  0.0000  0.0000  0.0000
15929SI     SI115929   1.083   9.010   0.771  0.0000  0.0000  0.0000
15930SI     SI115930   0.672   4.505   1.085  0.0000  0.0000  0.0000
15931SI     SI115931   4.284   0.362   8.347  0.0000  0.0000  0.0000
15932SI     SI115932   9.447   1.179   0.402  0.0000  0.0000  0.0000
15933SI     SI115933   2.574   4.830   9.578  0.0000  0.0000  0.0000
15934SI     SI115934   0.855   1.437   1.006  0.0000  0.0000  0.0000
15935SI     SI115935   9.286   1.081   0.145  0.0000  0.0000  0.0000
15936SI     SI115936   5.570   3.502   8.729  0.0000  0.0000  0.0000
15937SI     SI115937   7.907   0.594   9.117  0.0000  0.0000  0.0000
15938SI     SI115938   0.786   9.218   8.372  0.0000  0.0000  0.0000
15939SI     SI115939   5.129   6.523   9.305  0.0000  0.0000  0.0000
15940SI     SI115940   3.607   2.882   0.625  0.0000  0.0000  0.0000
15941SI     SI115941   2.901   0.572   0.949  0.0000  0.0000  0.0000
15942SI     SI115942   8.302   9.374   0.819  0.0000  0.0000  0.0000
15943SI     SI115943   0.857   8.809   9.441  0.0000  0.0000  0.0000
15944SI     SI115944   0.523   6.350   1.276  0.0000  0.0000  0.0000
15945SI     SI115945   2.387   0.416   1.073  0.0000  0.0000  0.0000
15946SI     SI115946   4.853   1.649   9.592  0.0000  0.0000  0.0000
15947SI     SI115947   7.885   8.419   8.685  0.0000  0.0000  0.0000
15948SI     SI115948   8.680   2.512   8.916  0.0000  0.0000  0.0000
15949SI     SI115949   9.564   1.252   8.868  0.0000  0.0000  0.0000
15950SI     SI115950   6.279   0.850   9.101  0.0000  0.0000  0.0000
15951SI     SI115951   7.220   1.212   0.547  0.0000  0.0000  0.0000
15952SI     SI115952   6.640   8.165   1.045  0.0000  0.0000  0.0000
15953SI     SI115953   7.846   5.066   8.785  0.0000  0.0000  0.0000
15954SI     SI115954   8.977   7.377   0.863  0.0000  0.0000  0.0000
15955SI     SI115955   9.328   7.254   8.659  0.0000  0.0000  0.0000
15956SI     SI115956   5.390   2.921   9.387  0.0000  0.0000  0.0000
15957SI     SI115957   5.046   4.089   0.865  0.0000  0.0000  0.0000
15958SI     SI115958   3.227   5.456   8.414  0.0000  0.0000  0.0000
15959SI     SI115959   7.295   2.342   8.828  0.0000  0.0000  0.0000
15960SI     SI115960   7.292   4.955   0.333  0.0000  0.0000  0.0000
15961SI     SI115961   0.528   2.182   0.017  0.0000  0.0000  0.0000
15962SI     SI115962   8.650   3.602   0.476  0.0000  0.0000  0.0000
15963SI     SI115963   5.539   8.982   0.358  0.0000  0.0000  0.0000
15964SI     SI115964   3.449   6.219   0.970  0.0000  0.0000  0.0000
15965SI     SI115965   8.089   5.700   0.506  0.0000  0.0000  0.0000
15966SI     SI115966   5.245   6.936   0.472  0.0000  0.0000  0.0000
15967SI     SI115967   3.561   1.411   8.598  0.0000  0.0000  0.0000
15968SI     SI115968   5.851   7.052   9.073  0.0000  0.0000  0.0000
15969SI     SI115969   3.172   2.663   0.264  0.0000  0.0000  0.0000
15970SI     SI115970   3.145   1.629   0.717  0.0000  0.0000  0.0000
15971SI     SI115971   3.253   3.997   0.071  0.0000  0.0000  0.0000
15972SI     SI115972   8.002   5.694   0.208  0.0000  0.0000  0.0000
15973SI     SI115973   2.704   3.787   1.040  0.0000  0.0000  0.0000
15974SI     SI115974   9.277   7.015   9.133  0.0000  0.0000  0.0000
15975SI     SI115975   3.530   5.031   0.528  0.0000  0.0000  0.0000
15976SI     SI115976   3.943   4.826   0.767  0.0000  0.0000  0.0000
15977SI     SI115977   9.256   6.561   8.308  0.0000  0.0000  0.0000
15978SI     SI115978   1.428   5.176   9.131  0.0000  0.0000  0.0000
15979SI     SI115979   2.409   4.760   0.520  0.0000  0.0000  0.0000
15980SI     SI115980   4.819   3.679   0.417  0.0000  0.0000  0.0000
15981SI     SI115981   3.171   9.288   8.788  0.0000  0.0000  0.0000
15982SI     SI115982   3.364   7.495   8.500  0.0000  0.0000  0.0000
15983SI     SI115983   6.859   0.682   9.501  0.0000  0.0000  0.0000
15984SI     SI115984   1.644   6.247   8.721  0.0000  0.0000  0.0000
15985SI     SI115985   1.036   3.204   9.498  0.0000  0.0000  0.0000
15986SI     SI115986   1.489   2.061   0.109  0.0000  0.0000  0.0000
15987SI     SI115987   4.128   9.476   1.205  0.0000  0.0000  0.0000
15988SI     SI115988   7.892   8.186   8.492  0.0000  0.0000  0.0000
15989SI     SI115989   0.750   8.710   9.162  0.0000  0.0000  0.0000
15990SI     SI115990   9.316   0.284   8.402  0.0000  0.0000  0.0000
15991SI     SI115991   3.977   6.069   9.186  0.0000  0.0000  0.0000
15992SI     SI115992   5.566   9.239   9.485  0.0000  0.0000  0.0000
15993SI     SI115993   7.211   9.511   9.089  0.0000  0.0000  0.0000
15994SI     SI115994   2.366   8.101   8.605  0.0000  0.0000  0.0000
15995SI     SI115995   8.768   4.023   0.872  0.0000  0.0000  0.0000
15996SI     SI115996   6.230   6.048   8.865  0.0000  0.0000  0.0000
15997SI     SI115997   6.816   9.272   0.802  0.0000  0.0000  0.0000
15998SI     SI115998   7.008   3.773   8.549  0.0000  0.0000  0.0000
15999SI     SI115999   3.124   3.879   8.408  0.0000  0.0000  0.0000
16000SI     SI116000   6.975   4.345   0.261  0.0000  0.0000  0.0000
16001SI     SI116001   7.458   6.400   8.977  0.0000  0.0000  0.0000
16002SI     SI116002   3.155   9.584   1.132  0.0000  0.0000  0.0000
16003SI     SI116003   6.970   6.509   0.553  0.0000  0.0000  0.0000
16004SI     SI116004   9.430   4.190   1.424  0.0000  0.0000  0.0000
16005SI     SI116005   2.748   7.353   0.844  0.0000  0.0000  0.0000
16006SI     SI116006   9.401   6.888   9.380  0.0000  0.0000  0.0000
16007SI     SI116007   4.850   7.268   9.414  0.0000  0.0000  0.0000
16008SI     SI116008   4.807   6.975   0.209  0.0000  0.0000  0.0000
16009SI     SI116009   9.053   1.415   8.740  0.0000  0.0000  0.0000
16010SI     SI116010   6.027   3.729   0.976  0.0000  0.0000  0.0000
16011SI     SI116011   1.276   1.097   0.221  0.0000  0.0000  0.0000
16012SI     SI116012   1.028   2.025   1.033  0.0000  0.0000  0.0000
16013SI     SI116013   9.309   5.566   8.624  0.0000  0.0000  0.0000
16014SI     SI116014   7.592   5.092   0.865  0.0000  0.0000  0.0000
16015SI     SI116015   3.404   2.855   8.275  0.0000  0.0000  0.0000
16016SI     SI116016   2.438   6.006   1.112  0.0000  0.0000  0.0000
16017SI     SI116017   2.200   0.151   9.314  0.0000  0.0000  0.0000
16018SI     SI116018   8.979   3.128   0.772  0.0000  0.0000  0.0000
16019SI     SI116019   8.932   9.394   0.156  0.0000  0.0000  0.0000
16020SI     SI116020   7.603   4.176   0.534  0.0000  0.0000  0.0000
16021SI     SI116021   1.774   6.872   9.541  0.0000  0.0000  0.0000
16022SI     SI116022   8.891   4.214   1.083  0.0000  0.0000  0.0000
16023SI     SI116023   9.506   7.511   8.673  0.0000  0.0000  0.0000
16024SI     SI116024   4.404   0.172   1.119  0.0000  0.0000  0.0000
16025SI     SI116025   5.282   8.458   9.225  0.0000  0.0000  0.0000
16026SI     SI116026   9.099   7.195   0.341  0.0000  0.0000  0.0000
16027SI     SI116027   0.104   8.040   8.318  0.0000  0.0000  0.0000
16028SI     SI116028   6.268   8.060   8.479  0.0000  0.0000  0.0000
16029SI     SI116029   8.887   3.277   9.244  0.0000  0.0000  0.0000
16030SI     SI116030   5.242   2.234   0.343  0.0000  0.0000  0.0000
16031SI     SI116031   7.269   3.120   8.384  0.0000  0.0000  0.0000
16032SI     SI116032   6.294   4.614   9.144  0.0000  0.0000  0.0000
16033SI     SI116033   4.541   3.510   0.190  0.0000  0.0000  0.0000
16034SI     SI116034   7.780   6.802   8.298  0.0000  0.0000  0.0000
16035SI     SI116035   1.426   1.761   1.126  0.0000  0.0000  0.0000
16036SI     SI116036   0.116   3.073   8.588  0.0000  0.0000  0.0000
16037SI     SI116037   0.171   8.877   0.104  0.0000  0.0000  0.0000
16038SI     SI116038   6.877   2.358   9.162  0.0000  0.0000  0.0000
16039SI     SI116039   3.677   6.637   8.320  0.0000  0.0000  0.0000
16040SI     SI116040   6.948   4.409   0.561  0.0000  0.0000  0.0000
16041SI     SI116041   3.696   6.992   8.721  0.0000  0.0000  0.0000
16042SI     SI116042   2.420   8.796   9.299  0.0000  0.0000  0.0000
16043SI     SI116043   8.655   2.641   0.735  0.0000  0.0000  0.0000
16044SI     SI116044   2.886   5.817   0.435  0.0000  0.0000  0.0000
16045SI     SI116045   6.141   0.783   8.693  0.0000  0.0000  0.0000
16046SI     SI116046   8.420   1.310   0.990  0.0000  0.0000  0.0000
16047SI     SI116047   5.072   4.839   8.812  0.0000  0.0000  0.0000
16048SI     SI116048   1.295   2.450   9.233  0.0000  0.0000  0.0000
16049SI     SI116049   8.692   6.574   0.627  0.0000  0.0000  0.0000
16050SI     SI116050   4.816   6.156   0.386  0.0000  0.0000  0.0000
16051SI     SI116051   2.010   7.400   9.177  0.0000  0.0000  0.0000
16052SI     SI116052   3.806   5.896   8.577  0.0000  0.0000  0.0000
16053SI     SI116053   7.332   9.193   1.094  0.0000  0.0000  0.0000
16054SI     SI116054   2.349   2.493   0.778  0.0000  0.0000  0.0000
16055SI     SI116055   1.375   9.603   0.485  0.0000  0.0000  0.0000
16056SI     SI116056   4.551   5.226   0.307  0.0000  0.0000  0.0000
16057SI     SI116057   0.349   2.744   8.317  0.0000  0.0000  0.0000
16058SI     SI116058   4.371   4.301   8.555  0.0000  0.0000  0.0000
16059SI     SI116059   7.931   1.266   0.627  0.0000  0.0000  0.0000
16060SI     SI116060   4.282   4.313   0.054  0.0000  0.0000  0.0000
16061SI     SI116061   6.827   4.463   8.990  0.0000  0.0000  0.0000
16062SI     SI116062   3.871   6.473   1.006  0.0000  0.0000  0.0000
16063SI     SI116063   0.614   4.190   9.298  0.0000  0.0000  0.0000
16064SI     SI116064   5.391   6.520   9.465  0.0000  0.0000  0.0000
16065SI     SI116065   2.224   5.234   8.755  0.0000  0.0000  0.0000
16066SI     SI116066   8.472   0.020   0.831  0.0000  0.0000  0.0000
16067SI     SI116067   4.291   6.905   9.269  0.0000  0.0000  0.0000
16068SI     SI116068   7.045   5.103   0.204  0.0000  0.0000  0.0000
16069SI     SI116069   0.774   8.734   1.098  0.0000  0.0000  0.0000
16070SI     SI116070   1.298   0.205   0.989  0.0000  0.0000  0.0000
16071SI     SI116071   3.282   2.586   1.335  0.0000  0.0000  0.0000
16072SI     SI116072   9.137   7.539   0.637  0.0000  0.0000  0.0000
16073SI     SI116073   2.432   1.042   9.106  0.0000  0.0000  0.0000
16074SI     SI116074   1.230   2.139   0.548  0.0000  0.0000  0.0000
16075SI     SI116075   1.822   4.198   0.625  0.0000  0.0000  0.0000
16076SI     SI116076   8.303   9.528   0.044  0.0000  0.0000  0.0000
16077SI     SI116077   6.333   1.444   0.616  0.0000  0.0000  0.0000
16078SI     SI116078   4.071   8.518   0.431  0.0000  0.0000  0.0000
16079SI     SI116079   0.916   4.216   0.117  0.0000  0.0000  0.0000
16080SI     SI116080   8.485   6.343   1.335  0.0000  0.0000  0.0000
16081SI     SI116081   7.393   3.030   0.807  0.0000  0.0000  0.0000
16082SI     SI116082   8.923   8.998   8.763  0.0000  0.0000  0.0000
16083SI     SI116083   8.397   2.815   8.326  0.0000  0.0000  0.0000
16084SI     SI116084   3.018   5.695   9.041  0.0000  0.0000  0.0000
16085SI     SI116085   4.842   7.282   8.666  0.0000  0.0000  0.0000
16086SI     SI116086   0.388   8.016   0.278  0.0000  0.0000  0.0000
16087SI     SI116087   5.968   2.702   8.603  0.0000  0.0000  0.0000
16088SI     SI116088   3.166   6.753   8.528  0.0000  0.0000  0.0000
16089SI     SI116089   1.445   2.648   1.112  0.0000  0.0000  0.0000
16090SI     SI116090   1.515   8.092   0.796  0.0000  0.0000  0.0000
16091SI     SI116091   1.802   2.345   0.806  0.0000  0.0000  0.0000
16092SI     SI116092   5.751   2.283   8.488  0.0000  0.0000  0.0000
16093SI     SI116093   0.647   2.275   0.773  0.0000  0.0000  0.0000
16094SI     SI116094   5.595   5.289   1.158  0.0000  0.0000  0.0000
16095SI     SI116095   0.937   4.412   1.220  0.0000  0.0000  0.0000
16096SI     SI116096   2.675   5.107   0.025  0.0000  0.0000  0.0000
16097SI     SI116097   2.219   7.486   0.537  0.0000  0.0000  0.0000
16098SI     SI116098   0.889   8.424   9.160  0.0000  0.0000  0.0000
16099SI     SI116099   8.741   0.560   1.030  0.0000  0.0000  0.0000
16100SI     SI116100   5.872   1.204   8.695  0.0000  0.0000  0.0000
16101SI     SI116101   8.424   8.050   9.044  0.0000  0.0000  0.0000
16102SI     SI116102   5.499   6.624   1.389  0.0000  0.0000  0.0000
16103SI     SI116103   5.572   7.485   9.486  0.0000  0.0000  0.0000
16104SI     SI116104   6.838   1.698   0.547  0.0000  0.0000  0.0000
16105SI     SI116105   8.509   7.471   8.476  0.0000  0.0000  0.0000
16106SI     SI116106   7.772   3.885   0.122  0.0000  0.0000  0.0000
16107SI     SI116107   5.369   0.567   8.837  0.0000  0.0000  0.0000
16108SI     SI116108   7.295   2.536   9.370  0.0000  0.0000  0.0000
16109SI     SI116109   2.454   7.594   8.390  0.0000  0.0000  0.0000
16110SI     SI116110   2.379   2.851   0.101  0.0000  0.0000  0.0000
16111SI     SI116111   0.425   4.873   9.574  0.0000  0.0000  0.0000
16112SI     SI116112   2.682   8.641   0.678  0.0000  0.0000  0.0000
16113SI     SI116113   4.531   2.185   0.324  0.0000  0.0000  0.0000
16114SI     SI116114   3.784   7.435   8.610  0.0000  0.0000  0.0000
16115SI     SI116115   2.696   7.760   8.774  0.0000  0.0000  0.0000
16116SI     SI116116   0.239   1.910   0.847  0.0000  0.0000  0.0000
16117SI     SI116117   6.271   4.349   9.512  0.0000  0.0000  0.0000
16118SI     SI116118   8.257   7.162   1.071  0.0000  0.0000  0.0000
16119SI     SI116119   9.021   0.992   9.023  0.0000  0.0000  0.0000
16120SI     SI116120   1.301   2.207   8.519  0.0000  0.0000  0.0000
16121SI     SI116121   3.183   4.002   0.466  0.0000  0.0000  0.0000
16122SI     SI116122   9.470   4.731   0.875  0.0000  0.0000  0.0000
16123SI     SI116123   6.589   3.545   0.878  0.0000  0.0000  0.0000
16124SI     SI116124   9.298   7.763   1.198  0.0000  0.0000  0.0000
16125SI     SI116125   5.784   5.972   1.085  0.0000  0.0000  0.0000
16126SI     SI116126   5.432   7.021   0.845  0.0000  0.0000  0.0000
16127SI     SI116127   8.831   8.120   0.886  0.0000  0.0000  0.0000
16128SI     SI116128   6.411   0.417   0.914  0.0000  0.0000  0.0000
16129SI     SI116129   0.786   3.439   0.489  0.0000  0.0000  0.0000
16130SI     SI116130   5.567   1.184   8.712  0.0000  0.0000  0.0000
16131SI     SI116131   1.631   3.098   8.225  0.0000  0.0000  0.0000
16132SI     SI116132   1.023   8.649   0.515  0.0000  0.0000  0.0000
16133SI     SI116133   2.134   4.731   0.147  0.0000  0.0000  0.0000
16134SI     SI116134   4.874   1.552   0.848  0.0000  0.0000  0.0000
16135SI     SI116135   3.775   5.882   0.422  0.0000  0.0000  0.0000
16136SI     SI116136   6.393   1.165   1.258  0.0000  0.0000  0.0000
16137SI     SI116137   4.590   0.716   8.438  0.0000  0.0000  0.0000
16138SI     SI116138   3.533   0.660   0.434  0.0000  0.0000  0.0000
16139SI     SI116139   1.834   6.647   0.138  0.0000  0.0000  0.0000
16140SI     SI116140   7.967   2.314   9.150  0.0000  0.0000  0.0000
16141SI     SI116141   8.193   6.967   0.861  0.0000  0.0000  0.0000
16142SI     SI116142   3.003   5.601   0.864  0.0000  0.0000  0.0000
16143SI     SI116143   3.189   0.257   8.233  0.0000  0.0000  0.0000
16144SI     SI116144   5.254   5.920   8.420  0.0000  0.0000  0.0000
16145SI     SI116145   3.864   8.789   8.665  0.0000  0.0000  0.0000
16146SI     SI116146   3.830   2.127   0.265  0.0000  0.0000  0.0000
16147SI     SI116147   8.432   6.926   0.302  0.0000  0.0000  0.0000
16148SI     SI116148   7.347   8.437   0.177  0.0000  0.0000  0.0000
16149SI     SI116149   2.866   1.657   8.538  0.0000  0.0000  0.0000
16150SI     SI116150   6.890   3.652   9.442  0.0000  0.0000  0.0000
16151SI     SI116151   8.697   6.068   1.013  0.0000  0.0000  0.0000
16152SI     SI116152   6.477   5.955   9.231  0.0000  0.0000  0.0000
16153SI     SI116153   6.834   1.480   0.768  0.0000  0.0000  0.0000
16154SI     SI116154   9.379   3.771   9.575  0.0000  0.0000  0.0000
16155SI     SI116155   7.077   8.400   8.551  0.0000  0.0000  0.0000
16156SI     SI116156   8.612   5.119   0.785  0.0000  0.0000  0.0000
16157SI     SI116157   6.060   0.397   8.282  0.0000  0.0000  0.0000
16158SI     SI116158   4.582   5.111   9.389  0.0000  0.0000  0.0000
16159SI     SI116159   6.300   7.187   8.999  0.0000  0.0000  0.0000
16160SI     SI116160   2.901   5.441   1.118  0.0000  0.0000  0.0000
16161SI     SI116161   3.059   1.480   0.325  0.0000  0.0000  0.0000
16162SI     SI116162   2.272   2.673   8.948  0.0000  0.0000  0.0000
16163SI     SI116163   5.069   8.767   0.567  0.0000  0.0000  0.0000
16164SI     SI116164   2.919   5.199   9.448  0.0000  0.0000  0.0000
16165SI     SI116165   2.460   3.023   0.783  0.0000  0.0000  0.0000
16166SI     SI116166   5.674   7.953   9.540  0.0000  0.0000  0.0000
16167SI     SI116167   0.165   0.304   0.315  0.0000  0.0000  0.0000
16168SI     SI116168   3.862   9.541   0.814  0.0000  0.0000  0.0000
16169SI     SI116169   4.178   0.366   0.742  0.0000  0.0000  0.0000
16170SI     SI116170   6.248   6.289   1.042  0.0000  0.0000  0.0000
16171SI     SI116171   4.285   1.895   0.603  0.0000  0.0000  0.0000
16172SI     SI116172   2.854   7.492   0.507  0.0000  0.0000  0.0000
16173SI     SI116173   4.825   9.486   8.484  0.0000  0.0000  0.0000
16174SI     SI116174   2.411   1.862   0.640  0.0000  0.0000  0.0000
16175SI     SI116175   8.605   1.306   0.565  0.0000  0.0000  0.0000
16176SI     SI116176   6.608   9.114   0.369  0.0000  0.0000  0.0000
16177SI     SI116177   1.450   3.224   8.657  0.0000  0.0000  0.0000
16178SI     SI116178   5.674   6.136   0.873  0.0000  0.0000  0.0000
16179SI     SI116179   0.358   9.191   8.754  0.0000  0.0000  0.0000
16180SI     SI116180   4.172   6.318   8.604  0.0000  0.0000  0.0000
16181SI     SI116181   5.465   3.958   0.286  0.0000  0.0000  0.0000
16182SI     SI116182   7.079   4.682   8.673  0.0000  0.0000  0.0000
16183SI     SI116183   4.728   5.109   8.448  0.0000  0.0000  0.0000
16184SI     SI116184   9.544   0.155   0.895  0.0000  0.0000  0.0000
16185SI     SI116185   1.881   4.768   0.604  0.0000  0.0000  0.0000
16186SI     SI116186   2.454   3.322   8.631  0.0000  0.0000  0.0000
16187SI     SI116187   2.811   3.735   0.256  0.0000  0.0000  0.0000
16188SI     SI116188   7.080   7.575   0.780  0.0000  0.0000  0.0000
16189SI     SI116189   1.075   8.597   8.567  0.0000  0.0000  0.0000
16190SI     SI116190   3.887   7.150   9.331  0.0000  0.0000  0.0000
16191SI     SI116191   1.840   6.801   0.408  0.0000  0.0000  0.0000
16192SI     SI116192   2.489   4.617   8.773  0.0000  0.0000  0.0000
16193SI     SI116193   0.633   7.258   9.431  0.0000  0.0000  0.0000
16194SI     SI116194   5.533   1.164   9.472  0.0000  0.0000  0.0000
16195SI     SI116195   6.933   6.968   0.157  0.0000  0.0000  0.0000
16196SI     SI116196   5.832   3.259   9.442  0.0000  0.0000  0.0000
16197SI     SI116197   7.317   1.144   8.511  0.0000  0.0000  0.0000
16198SI     SI116198   2.922   1.510   1.133  0.0000  0.0000  0.0000
16199SI     SI116199   7.485   2.027   0.237  0.0000  0.0000  0.0000
16200SI     SI116200   2.252   8.096   9.298  0.0000  0.0000  0.0000
16201SI     SI116201   3.510   8.955   0.303  0.0000  0.0000  0.0000
16202SI     SI116202   6.781   0.525   0.597  0.0000  0.0000  0.0000
16203SI     SI116203   6.979   6.083   8.845  0.0000  0.0000  0.0000
16204SI     SI116204   8.676   6.842   9.086  0.0000  0.0000  0.0000
16205SI     SI116205   8.223   5.448   8.751  0.0000  0.0000  0.0000
16206SI     SI116206   3.615   6.714   8.613  0.0000  0.0000  0.0000
16207SI     SI116207   2.852   8.007   8.676  0.0000  0.0000  0.0000
16208SI     SI116208   7.220   7.346   8.699  0.0000  0.0000  0.0000
16209SI     SI116209   8.207   8.928   1.330  0.0000  0.0000  0.0000
16210SI     SI116210   8.416   5.361   0.802  0.0000  0.0000  0.0000
16211SI     SI116211   8.458   2.819   9.213  0.0000  0.0000  0.0000
16212SI     SI116212   5.218   8.974   8.335  0.0000  0.0000  0.0000
16213SI     SI116213   4.769   4.444   8.842  0.0000  0.0000  0.0000
16214SI     SI116214   8.381   8.041   9.343  0.0000  0.0000  0.0000
16215SI     SI116215   5.934   2.421   1.237  0.0000  0.0000  0.0000
16216SI     SI116216   5.136   4.405   1.148  0.0000  0.0000  0.0000
16217SI     SI116217   0.116   3.115   8.901  0.0000  0.0000  0.0000
16218SI     SI116218   6.905   3.567   0.876  0.0000  0.0000  0.0000
16219SI     SI116219   1.526   1.837   8.256  0.0000  0.0000  0.0000
16220SI     SI116220   4.190   4.741   8.425  0.0000  0.0000  0.0000
16221SI     SI116221   6.413   3.360   8.672  0.0000  0.0000  0.0000
16222SI     SI116222   3.354   8.802   0.688  0.0000  0.0000  0.0000
16223SI     SI116223   2.823   6.197   8.759  0.0000  0.0000  0.0000
16224SI     SI116224   4.057   7.659   9.200  0.0000  0.0000  0.0000
16225SI     SI116225   6.606   9.088   0.924  0.0000  0.0000  0.0000
16226SI     SI116226   5.031   5.087   0.116  0.0000  0.0000  0.0000
16227SI     SI116227   2.444   0.920   9.599  0.0000  0.0000  0.0000
16228SI     SI116228   1.727   1.469   9.066  0.0000  0.0000  0.0000
16229SI     SI116229   8.096   3.884   0.539  0.0000  0.0000  0.0000
16230SI     SI116230   7.138   4.271   0.729  0.0000  0.0000  0.0000
16231SI     SI116231   7.758   6.777   1.041  0.0000  0.0000  0.0000
16232SI     SI116232   0.176   2.235   8.997  0.0000  0.0000  0.0000
16233SI     SI116233   4.236   7.829   0.583  0.0000  0.0000  0.0000
16234SI     SI116234   2.359   8.507   9.386  0.0000  0.0000  0.0000
16235SI     SI116235   6.307   0.181   9.156  0.0000  0.0000  0.0000
16236SI     SI116236   2.566   5.318   0.187  0.0000  0.0000  0.0000
16237SI     SI116237   0.404   8.913   0.853  0.0000  0.0000  0.0000
16238SI     SI116238   2.474   0.725   8.451  0.0000  0.0000  0.0000
16239SI     SI116239   3.036   8.147   1.222  0.0000  0.0000  0.0000
16240SI     SI116240   2.748   4.925   9.135  0.0000  0.0000  0.0000
16241SI     SI116241   1.056   2.243   0.318  0.0000  0.0000  0.0000
16242SI     SI116242   4.930   8.125   9.213  0.0000  0.0000  0.0000
16243SI     SI116243   2.933   2.997   9.267  0.0000  0.0000  0.0000
16244SI     SI116244   4.224   8.639   0.908  0.0000  0.0000  0.0000
16245SI     SI116245   5.265   6.510   0.852  0.0000  0.0000  0.0000
16246SI     SI116246   8.958   1.123   8.750  0.0000  0.0000  0.0000
16247SI     SI116247   8.020   5.826   9.378  0.0000  0.0000  0.0000
16248SI     SI116248   8.094   0.735   0.808  0.0000  0.0000  0.0000
16249SI     SI116249   8.534   3.577   8.399  0.0000  0.0000  0.0000
16250SI     SI116250   9.464   0.083   9.588  0.0000  0.0000  0.0000
16251SI     SI116251   0.844   1.672   8.844  0.0000  0.0000  0.0000
16252SI     SI116252   7.764   8.150   0.111  0.0000  0.0000  0.0000
16253SI     SI116253   7.736   5.162   9.074  0.0000  0.0000  0.0000
16254SI     SI116254   5.608   2.720   0.225  0.0000  0.0000  0.0000
16255SI     SI116255   5.575   8.236   8.448  0.0000  0.0000  0.0000
16256SI     SI116256   6.132   1.870   9.248  0.0000  0.0000  0.0000
16257SI     SI116257   0.856   0.389   9.550  0.0000  0.0000  0.0000
16258SI     SI116258   4.390   8.829   0.562  0.0000  0.0000  0.0000
16259SI     SI116259   2.138   6.734   1.143  0.0000  0.0000  0.0000
16260SI     SI116260   2.793   9.605   0.085  0.0000  0.0000  0.0000
16261SI     SI116261   4.904   5.360   8.789  0.0000  0.0000  0.0000
16262SI     SI116262   6.839   2.211   0.031  0.0000  0.0000  0.0000
16263SI     SI116263   7.782   5.212   0.167  0.0000  0.0000  0.0000
16264SI     SI116264   1.385   4.950   8.926  0.0000  0.0000  0.0000
16265SI     SI116265   8.324   4.095   0.541  0.0000  0.0000  0.0000
16266SI     SI116266   8.963   8.283   0.202  0.0000  0.0000  0.0000
16267SI     SI116267   8.582   6.429   8.516  0.0000  0.0000  0.0000
16268SI     SI116268   0.716   4.476   0.785  0.0000  0.0000  0.0000
16269SI     SI116269   6.612   7.498   8.932  0.0000  0.0000  0.0000
16270SI     SI116270   7.118   7.060   9.527  0.0000  0.0000  0.0000
16271SI     SI116271   8.921   3.904   0.112  0.0000  0.0000  0.0000
16272SI     SI116272   8.367   7.669   0.857  0.0000  0.0000  0.0000
16273SI     SI116273   3.739   4.724   9.389  0.0000  0.0000  0.0000
16274SI     SI116274   5.363   6.873   0.180  0.0000  0.0000  0.0000
16275SI     SI116275   5.902   0.002   0.114  0.0000  0.0000  0.0000
16276SI     SI116276   3.272   4.886   0.450  0.0000  0.0000  0.0000
16277SI     SI116277   5.871   6.580   8.532  0.0000  0.0000  0.0000
16278SI     SI116278   2.789   1.755   1.022  0.0000  0.0000  0.0000
16279SI     SI116279   7.190   4.922   0.629  0.0000  0.0000  0.0000
16280SI     SI116280   9.023   1.329   1.075  0.0000  0.0000  0.0000
16281SI     SI116281   4.471   6.052   0.594  0.0000  0.0000  0.0000
16282SI     SI116282   7.833   7.516   1.065  0.0000  0.0000  0.0000
16283SI     SI116283   6.348   6.855   0.655  0.0000  0.0000  0.0000
16284SI     SI116284   8.665   2.146   8.623  0.0000  0.0000  0.0000
16285SI     SI116285   7.591   9.576   9.413  0.0000  0.0000  0.0000
16286SI     SI116286   5.514   6.995   1.140  0.0000  0.0000  0.0000
16287SI     SI116287   0.332   8.318   8.592  0.0000  0.0000  0.0000
16288SI     SI116288   7.456   3.765   1.188  0.0000  0.0000  0.0000
16289SI     SI116289   0.070   0.579   8.274  0.0000  0.0000  0.0000
16290SI     SI116290   2.047   5.427   0.685  0.0000  0.0000  0.0000
16291SI     SI116291   6.280   8.777   0.341  0.0000  0.0000  0.0000
16292SI     SI116292   7.421   5.340   1.236  0.0000  0.0000  0.0000
16293SI     SI116293   2.792   8.488   0.930  0.0000  0.0000  0.0000
16294SI     SI116294   5.881   3.929   1.157  0.0000  0.0000  0.0000
16295SI     SI116295   1.659   7.867   0.968  0.0000  0.0000  0.0000
16296SI     SI116296   7.543   0.863   8.871  0.0000  0.0000  0.0000
16297SI     SI116297   0.728   1.781   9.339  0.0000  0.0000  0.0000
16298SI     SI116298   6.644   7.835   0.389  0.0000  0.0000  0.0000
16299SI     SI116299   5.359   7.229   0.487  0.0000  0.0000  0.0000
16300SI     SI116300   3.956   3.754   0.455  0.0000  0.0000  0.0000
16301SI     SI116301   7.643   6.014   1.012  0.0000  0.0000  0.0000
16302SI     SI116302   0.281   3.602   0.118  0.0000  0.0000  0.0000
16303SI     SI116303   4.736   7.344   1.053  0.0000  0.0000  0.0000
16304SI     SI116304   6.103   4.565   9.386  0.0000  0.0000  0.0000
16305SI     SI116305   4.197   4.812   1.096  0.0000  0.0000  0.0000
16306SI     SI116306   5.104   2.545   0.575  0.0000  0.0000  0.0000
16307SI     SI116307   1.050   4.847   9.422  0.0000  0.0000  0.0000
16308SI     SI116308   7.611   7.175   0.154  0.0000  0.0000  0.0000
16309SI     SI116309   3.180   1.520   1.291  0.0000  0.0000  0.0000
16310SI     SI116310   6.640   5.425   1.141  0.0000  0.0000  0.0000
16311SI     SI116311   4.580   0.813   0.770  0.0000  0.0000  0.0000
16312SI     SI116312   3.687   7.158   1.285  0.0000  0.0000  0.0000
16313SI     SI116313   0.370   0.292   0.718  0.0000  0.0000  0.0000
16314SI     SI116314   0.853   1.394   8.438  0.0000  0.0000  0.0000
16315SI     SI116315   1.352   8.560   9.430  0.0000  0.0000  0.0000
16316SI     SI116316   1.738   6.403   0.979  0.0000  0.0000  0.0000
16317SI     SI116317   9.259   8.492   9.454  0.0000  0.0000  0.0000
16318SI     SI116318   6.001   7.353   0.260  0.0000  0.0000  0.0000
16319SI     SI116319   7.660   7.515   9.468  0.0000  0.0000  0.0000
16320SI     SI116320   2.841   4.381   1.125  0.0000  0.0000  0.0000
16321SI     SI116321   5.729   2.243   8.862  0.0000  0.0000  0.0000
16322SI     SI116322   7.350   6.134   0.084  0.0000  0.0000  0.0000
16323SI     SI116323   6.545   8.497   9.437  0.0000  0.0000  0.0000
16324SI     SI116324   9.257   3.123   8.963  0.0000  0.0000  0.0000
16325SI     SI116325   7.621   9.203   9.079  0.0000  0.0000  0.0000
16326SI     SI116326   9.385   4.447   8.481  0.0000  0.0000  0.0000
16327SI     SI116327   1.013   8.008   8.894  0.0000  0.0000  0.0000
16328SI     SI116328   5.654   2.666   8.161  0.0000  0.0000  0.0000
16329SI     SI116329   6.346   4.021   0.392  0.0000  0.0000  0.0000
16330SI     SI116330   4.471   3.578   0.914  0.0000  0.0000  0.0000
16331SI     SI116331   0.537   1.288   9.103  0.0000  0.0000  0.0000
16332SI     SI116332   0.666   7.505   8.926  0.0000  0.0000  0.0000
16333SI     SI116333   4.991   6.391   0.739  0.0000  0.0000  0.0000
16334SI     SI116334   3.069   2.886   9.518  0.0000  0.0000  0.0000
16335SI     SI116335   5.422   2.276   1.221  0.0000  0.0000  0.0000
16336SI     SI116336   5.269   5.553   0.860  0.0000  0.0000  0.0000
16337SI     SI116337   5.389   8.719   8.382  0.0000  0.0000  0.0000
16338SI     SI116338   8.476   4.453   0.767  0.0000  0.0000  0.0000
16339SI     SI116339   5.177   8.068   9.354  0.0000  0.0000  0.0000
16340SI     SI116340   0.370   2.866   0.455  0.0000  0.0000  0.0000
16341SI     SI116341   4.474   0.100   0.332  0.0000  0.0000  0.0000
16342SI     SI116342   0.738   0.969   8.377  0.0000  0.0000  0.0000
16343SI     SI116343   0.730   1.894   0.413  0.0000  0.0000  0.0000
16344SI     SI116344   7.792   9.577   0.052  0.0000  0.0000  0.0000
16345SI     SI116345   6.533   7.007   0.849  0.0000  0.0000  0.0000
16346SI     SI116346   3.199   7.807   8.779  0.0000  0.0000  0.0000
16347SI     SI116347   1.717   5.779   8.562  0.0000  0.0000  0.0000
16348SI     SI116348   1.662   1.852   0.688  0.0000  0.0000  0.0000
16349SI     SI116349   3.878   5.358   0.656  0.0000  0.0000  0.0000
16350SI     SI116350   6.361   2.657   0.081  0.0000  0.0000  0.0000
16351SI     SI116351   8.736   0.261   0.220  0.0000  0.0000  0.0000
16352SI     SI116352   7.821   5.450   0.884  0.0000  0.0000  0.0000
16353SI     SI116353   4.232   6.636   8.258  0.0000  0.0000  0.0000
16354SI     SI116354   5.911   6.224   9.458  0.0000  0.0000  0.0000
16355SI     SI116355   9.017   8.804   0.312  0.0000  0.0000  0.0000
16356SI     SI116356   4.101   7.113   0.215  0.0000  0.0000  0.0000
16357SI     SI116357   4.226   9.327   0.098  0.0000  0.0000  0.0000
16358SI     SI116358   1.633   7.356   9.593  0.0000  0.0000  0.0000
16359SI     SI116359   9.071   2.595   0.618  0.0000  0.0000  0.0000
16360SI     SI116360   8.541   0.767   9.200  0.0000  0.0000  0.0000
16361SI     SI116361   8.484   1.768   0.791  0.0000  0.0000  0.0000
16362SI     SI116362   5.332   7.832   9.293  0.0000  0.0000  0.0000
16363SI     SI116363   9.216   0.606   9.228  0.0000  0.0000  0.0000
16364SI     SI116364   1.782   0.496   8.395  0.0000  0.0000  0.0000
16365SI     SI116365   6.457   1.116   0.950  0.0000  0.0000  0.0000
16366SI     SI116366   2.127   1.356   0.069  0.0000  0.0000  0.0000
16367SI     SI116367   1.436   3.346   0.069  0.0000  0.0000  0.0000
16368SI     SI116368   0.931   7.660   9.355  0.0000  0.0000  0.0000
16369SI     SI116369   8.495   1.304   8.928  0.0000  0.0000  0.0000
16370SI     SI116370   6.790   2.658   1.339  0.0000  0.0000  0.0000
16371SI     SI116371   1.921   0.638   1.081  0.0000  0.0000  0.0000
16372SI     SI116372   0.979   5.423   0.081  0.0000  0.0000  0.0000
16373SI     SI116373   4.804   5.043   0.312  0.0000  0.0000  0.0000
16374SI     SI116374   7.089   5.993   0.168  0.0000  0.0000  0.0000
16375SI     SI116375   5.767   2.502   8.715  0.0000  0.0000  0.0000
16376SI     SI116376   2.027   0.676   9.350  0.0000  0.0000  0.0000
16377SI     SI116377   0.837   8.342   8.662  0.0000  0.0000  0.0000
16378SI     SI116378   8.604   8.554   8.951  0.0000  0.0000  0.0000
16379SI     SI116379   3.843   0.392   8.353  0.0000  0.0000  0.0000
16380SI     SI116380   3.341   0.973   9.422  0.0000  0.0000  0.0000
16381SI     SI116381   8.545   3.546   9.091  0.0000  0.0000  0.0000
16382SI     SI116382   7.009   0.040   8.888  0.0000  0.0000  0.0000
16383SI     SI116383   9.597   4.820   0.596  0.0000  0.0000  0.0000
16384SI     SI116384   2.934   0.948   9.189  0.0000  0.0000  0.0000
16385SI     SI116385   2.433   4.708   0.230  0.0000  0.0000  0.0000
16386SI     SI116386   8.286   9.549   0.456  0.0000  0.0000  0.0000
16387SI     SI116387   6.191   8.427   1.381  0.0000  0.0000  0.0000
16388SI     SI116388   4.084   0.581   8.385  0.0000  0.0000  0.0000
16389SI     SI116389   8.869   3.921   8.856  0.0000  0.0000  0.0000
16390SI     SI116390   4.529   9.037   0.389  0.0000  0.0000  0.0000
16391SI     SI116391   7.236   3.779   0.729  0.0000  0.0000  0.0000
16392SI     SI116392   3.119   8.268   9.418  0.0000  0.0000  0.0000
16393SI     SI116393   5.705   2.216   1.255  0.0000  0.0000  0.0000
16394SI     SI116394   6.752   6.725   0.239  0.0000  0.0000  0.0000
16395SI     SI116395   5.638   4.087   0.649  0.0000  0.0000  0.0000
16396SI     SI116396   0.588   8.743   8.427  0.0000  0.0000  0.0000
16397SI     SI116397   6.838   9.235   0.507  0.0000  0.0000  0.0000
16398SI     SI116398   8.466   8.575   1.086  0.0000  0.0000  0.0000
16399SI     SI116399   7.098   5.342   8.862  0.0000  0.0000  0.0000
16400SI     SI116400   4.688   8.548   1.162  0.0000  0.0000  0.0000
16401SI     SI116401   6.687   6.071   9.418  0.0000  0.0000  0.0000
16402SI     SI116402   7.427   4.838   0.823  0.0000  0.0000  0.0000
16403SI     SI116403   5.481   6.331   9.253  0.0000  0.0000  0.0000
16404SI     SI116404   3.922   5.090   8.345  0.0000  0.0000  0.0000
16405SI     SI116405   1.689   1.026   9.210  0.0000  0.0000  0.0000
16406SI     SI116406   1.153   5.436   0.327  0.0000  0.0000  0.0000
16407SI     SI116407   2.074   9.036   1.349  0.0000  0.0000  0.0000
16408SI     SI116408   2.804   4.915   0.766  0.0000  0.0000  0.0000
16409SI     SI116409   0.658   0.489   8.336  0.0000  0.0000  0.0000
16410SI     SI116410   2.263   6.128   9.499  0.0000  0.0000  0.0000
16411SI     SI116411   5.543   4.146   0.943  0.0000  0.0000  0.0000
16412SI     SI116412   5.230   0.420   9.080  0.0000  0.0000  0.0000
16413SI     SI116413   7.173   0.480   9.167  0.0000  0.0000  0.0000
16414SI     SI116414   1.467   5.434   0.361  0.0000  0.0000  0.0000
16415SI     SI116415   2.658   4.295   8.217  0.0000  0.0000  0.0000
16416SI     SI116416   0.897   6.634   0.647  0.0000  0.0000  0.0000
16417SI     SI116417   6.956   0.504   0.112  0.0000  0.0000  0.0000
16418SI     SI116418   9.385   4.114   0.978  0.0000  0.0000  0.0000
16419SI     SI116419   5.491   1.476   0.390  0.0000  0.0000  0.0000
16420SI     SI116420   3.804   1.821   0.643  0.0000  0.0000  0.0000
16421SI     SI116421   2.421   3.672   8.942  0.0000  0.0000  0.0000
16422SI     SI116422   6.338   0.958   0.278  0.0000  0.0000  0.0000
16423SI     SI116423   1.728   1.977   9.104  0.0000  0.0000  0.0000
16424SI     SI116424   8.494   1.625   8.562  0.0000  0.0000  0.0000
16425SI     SI116425   4.588   1.259   0.184  0.0000  0.0000  0.0000
16426SI     SI116426   0.771   1.663   8.548  0.0000  0.0000  0.0000
16427SI     SI116427   7.240   1.472   9.237  0.0000  0.0000  0.0000
16428SI     SI116428   0.906   7.176   8.620  0.0000  0.0000  0.0000
16429SI     SI116429   5.752   5.342   0.387  0.0000  0.0000  0.0000
16430SI     SI116430   6.695   2.037   8.806  0.0000  0.0000  0.0000
16431SI     SI116431   2.928   3.259   0.456  0.0000  0.0000  0.0000
16432SI     SI116432   5.459   4.480   8.576  0.0000  0.0000  0.0000
16433SI     SI116433   8.637   4.948   9.246  0.0000  0.0000  0.0000
16434SI     SI116434   3.439   5.709   8.182  0.0000  0.0000  0.0000
16435SI     SI116435   0.259   7.873   0.701  0.0000  0.0000  0.0000
16436SI     SI116436   8.408   9.554   9.354  0.0000  0.0000  0.0000
16437SI     SI116437   1.494   0.259   0.029  0.0000  0.0000  0.0000
16438SI     SI116438   5.147   2.009   0.505  0.0000  0.0000  0.0000
16439SI     SI116439   7.356   5.861   0.608  0.0000  0.0000  0.0000
16440SI     SI116440   1.352   3.535   0.913  0.0000  0.0000  0.0000
16441SI     SI116441   2.354   9.178   8.486  0.0000  0.0000  0.0000
16442SI     SI116442   3.782   5.557   9.599  0.0000  0.0000  0.0000
16443SI     SI116443   9.033   8.836   9.009  0.0000  0.0000  0.0000
16444SI     SI116444   1.092   7.012   0.226  0.0000  0.0000  0.0000
16445SI     SI116445   7.598   2.017   1.010  0.0000  0.0000  0.0000
16446SI     SI116446   6.593   4.027   0.592  0.0000  0.0000  0.0000
16447SI     SI116447   7.643   0.037   1.291  0.0000  0.0000  0.0000
16448SI     SI116448   1.003   3.668   8.955  0.0000  0.0000  0.0000
16449SI     SI116449   3.814   1.001   1.183  0.0000  0.0000  0.0000
16450SI     SI116450   1.990   5.594   8.962  0.0000  0.0000  0.0000
16451SI     SI116451   7.610   8.067   8.478  0.0000  0.0000  0.0000
16452SI     SI116452   5.672   6.151   0.051  0.0000  0.0000  0.0000
16453SI     SI116453   9.163   2.277   1.078  0.0000  0.0000  0.0000
16454SI     SI116454   3.840   6.519   9.537  0.0000  0.0000  0.0000
16455SI     SI116455   6.063   9.156   0.293  0.0000  0.0000  0.0000
16456SI     SI116456   3.347   5.397   0.664  0.0000  0.0000  0.0000
16457SI     SI116457   2.564   2.972   9.081  0.0000  0.0000  0.0000
16458SI     SI116458   4.345   6.802   0.386  0.0000  0.0000  0.0000
16459SI     SI116459   2.161   6.106   0.569  0.0000  0.0000  0.0000
16460SI     SI116460   3.519   8.766   9.039  0.0000  0.0000  0.0000
16461SI     SI116461   0.823   4.623   8.459  0.0000  0.0000  0.0000
16462SI     SI116462   4.992   6.043   9.054  0.0000  0.0000  0.0000
16463SI     SI116463   1.387   7.233   1.206  0.0000  0.0000  0.0000
16464SI     SI116464   8.191   2.322   8.940  0.0000  0.0000  0.0000
16465SI     SI116465   0.328   6.077   8.383  0.0000  0.0000  0.0000
16466SI     SI116466   0.600   9.053   1.387  0.0000  0.0000  0.0000
16467SI     SI116467   7.176   4.583   9.498  0.0000  0.0000  0.0000
16468SI     SI116468   1.605   1.753   0.432  0.0000  0.0000  0.0000
16469SI     SI116469   3.970   3.664   1.195  0.0000  0.0000  0.0000
16470SI     SI116470   4.328   4.364   9.103  0.0000  0.0000  0.0000
16471SI     SI116471   1.127   9.399   8.617  0.0000  0.0000  0.0000
16472SI     SI116472   5.065   8.690   1.084  0.0000  0.0000  0.0000
16473SI     SI116473   7.286   8.806   9.194  0.0000  0.0000  0.0000
16474SI     SI116474   4.096   6.473   9.127  0.0000  0.0000  0.0000
16475SI     SI116475   5.751   3.129   0.095  0.0000  0.0000  0.0000
16476SI     SI116476   8.336   6.702   0.107  0.0000  0.0000  0.0000
16477SI     SI116477   4.330   3.592   9.149  0.0000  0.0000  0.0000
16478SI     SI116478   0.968   8.003   0.940  0.0000  0.0000  0.0000
16479SI     SI116479   0.518   7.948   0.833  0.0000  0.0000  0.0000
16480SI     SI116480   1.159   4.285   0.510  0.0000  0.0000  0.0000
16481SI     SI116481   2.535   6.215   0.325  0.0000  0.0000  0.0000
16482SI     SI116482   2.797   2.960   8.441  0.0000  0.0000  0.0000
16483SI     SI116483   4.831   2.378   8.740  0.0000  0.0000  0.0000
16484SI     SI116484   6.805   2.939   0.464  0.0000  0.0000  0.0000
16485SI     SI116485   6.084   4.695   0.180  0.0000  0.0000  0.0000
16486SI     SI116486   4.876   5.202   9.471  0.0000  0.0000  0.0000
16487SI     SI116487   1.901   7.060   0.850  0.0000  0.0000  0.0000
16488SI     SI116488   1.530   9.091   9.585  0.0000  0.0000  0.0000
16489SI     SI116489   3.843   4.601   0.055  0.0000  0.0000  0.0000
16490SI     SI116490   5.425   9.134   8.509  0.0000  0.0000  0.0000
16491SI     SI116491   5.130   1.276   0.137  0.0000  0.0000  0.0000
16492SI     SI116492   9.369   6.515   1.206  0.0000  0.0000  0.0000
16493SI     SI116493   8.326   5.484   9.483  0.0000  0.0000  0.0000
16494SI     SI116494   9.497   1.146   9.257  0.0000  0.0000  0.0000
16495SI     SI116495   5.418   8.743   9.270  0.0000  0.0000  0.0000
16496SI     SI116496   3.081   3.706   0.420  0.0000  0.0000  0.0000
16497SI     SI116497   9.091   9.489   8.415  0.0000  0.0000  0.0000
16498SI     SI116498   3.032   2.396   9.297  0.0000  0.0000  0.0000
16499SI     SI116499   7.357   8.584   0.661  0.0000  0.0000  0.0000
16500SI     SI116500   7.833   0.143   0.455  0.0000  0.0000  0.0000
16501SI     SI116501   8.031   3.571   9.200  0.0000  0.0000  0.0000
16502SI     SI116502   7.887   6.944   0.806  0.0000  0.0000  0.0000
16503SI     SI116503   4.201   5.081   0.967  0.0000  0.0000  0.0000
16504SI     SI116504   0.124   5.227   1.238  0.0000  0.0000  0.0000
16505SI     SI116505   5.937   7.012   9.555  0.0000  0.0000  0.0000
16506SI     SI116506   0.670   6.087   0.369  0.0000  0.0000  0.0000
16507SI     SI116507   7.955   8.947   0.620  0.0000  0.0000  0.0000
16508SI     SI116508   6.152   3.867   9.293  0.0000  0.0000  0.0000
16509SI     SI116509   5.205   0.948   8.399  0.0000  0.0000  0.0000
16510SI     SI116510   8.406   4.050   0.034  0.0000  0.0000  0.0000
16511SI     SI116511   3.562   7.740   0.533  0.0000  0.0000  0.0000
16512SI     SI116512   7.657   0.884   0.927  0.0000  0.0000  0.0000
16513SI     SI116513   5.521   4.953   0.642  0.0000  0.0000  0.0000
16514SI     SI116514   7.513   3.144   0.408  0.0000  0.0000  0.0000
16515SI     SI116515   8.389   8.581   9.178  0.0000  0.0000  0.0000
16516SI     SI116516   5.659   3.293   8.914  0.0000  0.0000  0.0000
16517SI     SI116517   4.583   9.218   0.965  0.0000  0.0000  0.0000
16518SI     SI116518   9.540   4.828   8.652  0.0000  0.0000  0.0000
16519SI     SI116519   5.552   1.029   0.944  0.0000  0.0000  0.0000
16520SI     SI116520   7.098   3.295   8.888  0.0000  0.0000  0.0000
16521SI     SI116521   1.548   1.269   0.584  0.0000  0.0000  0.0000
16522SI     SI116522   4.956   4.512   0.694  0.0000  0.0000  0.0000
16523SI     SI116523   4.818   5.089   0.626  0.0000  0.0000  0.0000
16524SI     SI116524   8.383   8.871   8.528  0.0000  0.0000  0.0000
16525SI     SI116525   1.982   8.549   8.232  0.0000  0.0000  0.0000
16526SI     SI116526   6.010   1.210   8.417  0.0000  0.0000  0.0000
16527SI     SI116527   4.024   2.052   0.633  0.0000  0.0000  0.0000
16528SI     SI116528   9.510   8.201   0.128  0.0000  0.0000  0.0000
16529SI     SI116529   7.225   3.031   8.803  0.0000  0.0000  0.0000
16530SI     SI116530   1.861   7.897   9.051  0.0000  0.0000  0.0000
16531SI     SI116531   3.218   2.615   9.440  0.0000  0.0000  0.0000
16532SI     SI116532   1.306   4.014   1.135  0.0000  0.0000  0.0000
16533SI     SI116533   3.190   3.711   1.307  0.0000  0.0000  0.0000
16534SI     SI116534   8.119   8.668   9.268  0.0000  0.0000  0.0000
16535SI     SI116535   8.110   4.267   1.153  0.0000  0.0000  0.0000
16536SI     SI116536   7.913   2.543   0.580  0.0000  0.0000  0.0000
16537SI     SI116537   9.104   8.753   9.453  0.0000  0.0000  0.0000
16538SI     SI116538   3.975   4.848   1.288  0.0000  0.0000  0.0000
16539SI     SI116539   5.372   2.855   8.715  0.0000  0.0000  0.0000
16540SI     SI116540   1.505   5.405   8.936  0.0000  0.0000  0.0000
16541SI     SI116541   2.613   9.423   0.673  0.0000  0.0000  0.0000
16542SI     SI116542   7.631   6.276   8.760  0.0000  0.0000  0.0000
16543SI     SI116543   9.009   0.069   0.763  0.0000  0.0000  0.0000
16544SI     SI116544   1.997   6.156   8.374  0.0000  0.0000  0.0000
16545SI     SI116545   6.260   2.105   9.410  0.0000  0.0000  0.0000
16546SI     SI116546   7.776   3.269   0.278  0.0000  0.0000  0.0000
16547SI     SI116547   8.815   6.982   1.274  0.0000  0.0000  0.0000
16548SI     SI116548   5.734   2.774   0.887  0.0000  0.0000  0.0000
16549SI     SI116549   4.098   8.129   0.200  0.0000  0.0000  0.0000
16550SI     SI116550   6.034   3.493   9.523  0.0000  0.0000  0.0000
16551SI     SI116551   1.781   3.191   9.523  0.0000  0.0000  0.0000
16552SI     SI116552   7.559   9.367   1.215  0.0000  0.0000  0.0000
16553SI     SI116553   2.520   1.472   9.391  0.0000  0.0000  0.0000
16554SI     SI116554   2.287   6.762   0.879  0.0000  0.0000  0.0000
16555SI     SI116555   0.991   6.118   0.027  0.0000  0.0000  0.0000
16556SI     SI116556   8.925   8.793   1.322  0.0000  0.0000  0.0000
16557SI     SI116557   9.490   5.088   8.776  0.0000  0.0000  0.0000
16558SI     SI116558   5.965   6.497   9.352  0.0000  0.0000  0.0000
16559SI     SI116559   7.939   1.587   1.262  0.0000  0.0000  0.0000
16560SI     SI116560   7.626   8.385   0.243  0.0000  0.0000  0.0000
16561SI     SI116561   8.588   3.076   8.831  0.0000  0.0000  0.0000
16562SI     SI116562   7.259   0.935   1.225  0.0000  0.0000  0.0000
16563SI     SI116563   5.081   7.532   0.239  0.0000  0.0000  0.0000
16564SI     SI116564   2.531   4.410   1.178  0.0000  0.0000  0.0000
16565SI     SI116565   2.189   5.671   1.327  0.0000  0.0000  0.0000
16566SI     SI116566   9.288   6.490   8.612  0.0000  0.0000  0.0000
16567SI     SI116567   4.040   7.131   0.534  0.0000  0.0000  0.0000
16568SI     SI116568   3.628   7.837   9.071  0.0000  0.0000  0.0000
16569SI     SI116569   7.736   8.683   9.354  0.0000  0.0000  0.0000
16570SI     SI116570   9.109   8.210   0.781  0.0000  0.0000  0.0000
16571SI     SI116571   3.301   3.550   9.292  0.0000  0.0000  0.0000
16572SI     SI116572   6.695   2.395   1.211  0.0000  0.0000  0.0000
16573SI     SI116573   3.866   6.238   0.056  0.0000  0.0000  0.0000
16574SI     SI116574   9.598   1.604   9.461  0.0000  0.0000  0.0000
16575SI     SI116575   3.705   4.834   1.138  0.0000  0.0000  0.0000
16576SI     SI116576   2.149   0.668   8.858  0.0000  0.0000  0.0000
16577SI     SI116577   4.617   8.079   8.863  0.0000  0.0000  0.0000
16578SI     SI116578   3.484   5.065   8.616  0.0000  0.0000  0.0000
16579SI     SI116579   8.780   2.653   0.307  0.0000  0.0000  0.0000
16580SI     SI116580   2.256   6.457   1.244  0.0000  0.0000  0.0000
16581SI     SI116581   3.316   9.169   8.401  0.0000  0.0000  0.0000
16582SI     SI116582   5.303   5.029   0.423  0.0000  0.0000  0.0000
16583SI     SI116583   2.383   8.775   0.358  0.0000  0.0000  0.0000
16584SI     SI116584   0.082   6.844   9.382  0.0000  0.0000  0.0000
16585SI     SI116585   1.870   0.928   0.969  0.0000  0.0000  0.0000
16586SI     SI116586   5.636   6.718   0.546  0.0000  0.0000  0.0000
16587SI     SI116587   1.356   3.603   1.208  0.0000  0.0000  0.0000
16588SI     SI116588   7.887   4.569   8.939  0.0000  0.0000  0.0000
16589SI     SI116589   8.536   5.480   8.787  0.0000  0.0000  0.0000
16590SI     SI116590   4.367   7.563   1.242  0.0000  0.0000  0.0000
16591SI     SI116591   1.925   4.389   8.690  0.0000  0.0000  0.0000
16592SI     SI116592   3.108   1.957   9.516  0.0000  0.0000  0.0000
16593SI     SI116593   3.826   5.445   8.671  0.0000  0.0000  0.0000
16594SI     SI116594   9.555   1.860   0.739  0.0000  0.0000  0.0000
16595SI     SI116595   9.350   1.813   0.284  0.0000  0.0000  0.0000
16596SI     SI116596   6.400   7.636   0.038  0.0000  0.0000  0.0000
16597SI     SI116597   3.429   7.282   1.378  0.0000  0.0000  0.0000
16598SI     SI116598   7.750   2.496   0.312  0.0000  0.0000  0.0000
16599SI     SI116599   6.387   3.538   0.452  0.0000  0.0000  0.0000
16600SI     SI116600   0.579   0.186   1.121  0.0000  0.0000  0.0000
16601SI     SI116601   7.071   4.498   0.930  0.0000  0.0000  0.0000
16602SI     SI116602   4.834   7.753   9.526  0.0000  0.0000  0.0000
16603SI     SI116603   8.010   9.522   0.596  0.0000  0.0000  0.0000
16604SI     SI116604   6.801   5.693   9.067  0.0000  0.0000  0.0000
16605SI     SI116605   1.446   1.575   9.457  0.0000  0.0000  0.0000
16606SI     SI116606   7.835   4.680   8.428  0.0000  0.0000  0.0000
16607SI     SI116607   8.615   7.028   0.068  0.0000  0.0000  0.0000
16608SI     SI116608   3.017   5.965   8.661  0.0000  0.0000  0.0000
16609SI     SI116609   3.875   7.159   8.546  0.0000  0.0000  0.0000
16610SI     SI116610   4.526   8.438   9.460  0.0000  0.0000  0.0000
16611SI     SI116611   0.908   3.934   0.473  0.0000  0.0000  0.0000
16612SI     SI116612   8.461   7.264   0.861  0.0000  0.0000  0.0000
16613SI     SI116613   1.805   0.310   0.009  0.0000  0.0000  0.0000
16614SI     SI116614   6.672   3.528   8.918  0.0000  0.0000  0.0000
16615SI     SI116615   5.514   1.290   9.009  0.0000  0.0000  0.0000
16616SI     SI116616   5.311   5.398   0.597  0.0000  0.0000  0.0000
16617SI     SI116617   5.017   6.822   0.791  0.0000  0.0000  0.0000
16618SI     SI116618   5.480   4.747   1.150  0.0000  0.0000  0.0000
16619SI     SI116619   5.232   7.792   0.180  0.0000  0.0000  0.0000
16620SI     SI116620   8.239   1.685   9.146  0.0000  0.0000  0.0000
16621SI     SI116621   2.955   1.234   0.660  0.0000  0.0000  0.0000
16622SI     SI116622   2.879   3.959   8.581  0.0000  0.0000  0.0000
16623SI     SI116623   5.957   0.663   0.991  0.0000  0.0000  0.0000
16624SI     SI116624   4.700   1.451   8.552  0.0000  0.0000  0.0000
16625SI     SI116625   1.851   5.878   0.095  0.0000  0.0000  0.0000
16626SI     SI116626   3.900   5.149   9.322  0.0000  0.0000  0.0000
16627SI     SI116627   9.169   0.808   9.449  0.0000  0.0000  0.0000
16628SI     SI116628   1.300   7.534   0.331  0.0000  0.0000  0.0000
16629SI     SI116629   6.475   0.159   8.897  0.0000  0.0000  0.0000
16630SI     SI116630   7.243   0.511   8.863  0.0000  0.0000  0.0000
16631SI     SI116631   9.473   4.776   9.080  0.0000  0.0000  0.0000
16632SI     SI116632   1.685   6.373   0.194  0.0000  0.0000  0.0000
16633SI     SI116633   4.767   4.149   8.415  0.0000  0.0000  0.0000
16634SI     SI116634   7.029   7.862   8.506  0.0000  0.0000  0.0000
16635SI     SI116635   6.627   5.243   0.194  0.0000  0.0000  0.0000
16636SI     SI116636   8.369   6.006   9.073  0.0000  0.0000  0.0000
16637SI     SI116637   9.576   6.544   0.607  0.0000  0.0000  0.0000
16638SI     SI116638   6.161   3.636   8.560  0.0000  0.0000  0.0000
16639SI     SI116639   4.548   5.464   0.098  0.0000  0.0000  0.0000
16640SI     SI116640   8.166   8.335   0.878  0.0000  0.0000  0.0000
16641SI     SI116641   5.350   8.442   8.929  0.0000  0.0000  0.0000
16642SI     SI116642   3.591   8.258   9.354  0.0000  0.0000  0.0000
16643SI     SI116643   5.247   7.525   0.964  0.0000  0.0000  0.0000
16644SI     SI116644   2.699   7.858   0.976  0.0000  0.0000  0.0000
16645SI     SI116645   1.498   1.986   9.429  0.0000  0.0000  0.0000
16646SI     SI116646   2.197   8.960   9.461  0.0000  0.0000  0.0000
16647SI     SI116647   9.281   0.440   0.588  0.0000  0.0000  0.0000
16648SI     SI116648   2.526   9.463   9.596  0.0000  0.0000  0.0000
16649SI     SI116649   4.470   1.353   1.069  0.0000  0.0000  0.0000
16650SI     SI116650   2.643   1.713   9.535  0.0000  0.0000  0.0000
16651SI     SI116651   0.881   7.812   1.182  0.0000  0.0000  0.0000
16652SI     SI116652   7.500   8.696   8.458  0.0000  0.0000  0.0000
16653SI     SI116653   0.454   7.069   8.564  0.0000  0.0000  0.0000
16654SI     SI116654   7.760   9.342   0.977  0.0000  0.0000  0.0000
16655SI     SI116655   3.421   7.725   0.788  0.0000  0.0000  0.0000
16656SI     SI116656   6.542   1.380   0.837  0.0000  0.0000  0.0000
16657SI     SI116657   8.162   1.397   9.094  0.0000  0.0000  0.0000
16658SI     SI116658   7.531   6.274   9.256  0.0000  0.0000  0.0000
16659SI     SI116659   0.746   2.702   8.872  0.0000  0.0000  0.0000
16660SI     SI116660   3.850   8.299   9.176  0.0000  0.0000  0.0000
16661SI     SI116661   2.319   8.206   0.453  0.0000  0.0000  0.0000
16662SI     SI116662   7.751   7.329   9.237  0.0000  0.0000  0.0000
16663SI     SI116663   0.651   5.766   8.668  0.0000  0.0000  0.0000
16664SI     SI116664   0.991   8.441   0.067  0.0000  0.0000  0.0000
16665SI     SI116665   8.193   8.203   8.608  0.0000  0.0000  0.0000
16666SI     SI116666   6.804   3.241   0.506  0.0000  0.0000  0.0000
16667SI     SI116667   5.689   5.795   0.472  0.0000  0.0000  0.0000
16668SI     SI116668   1.485   1.483   0.136  0.0000  0.0000  0.0000
16669SI     SI116669   3.356   5.238   8.830  0.0000  0.0000  0.0000
16670SI     SI116670   8.770   2.194   0.672  0.0000  0.0000  0.0000
16671SI     SI116671   0.984   5.289   0.536  0.0000  0.0000  0.0000
16672SI     SI116672   0.680   7.031   8.765  0.0000  0.0000  0.0000
16673SI     SI116673   7.043   1.450   8.651  0.0000  0.0000  0.0000
16674SI     SI116674   0.602   5.931   9.058  0.0000  0.0000  0.0000
16675SI     SI116675   4.909   9.011   8.411  0.0000  0.0000  0.0000
16676SI     SI116676   6.580   3.452   0.062  0.0000  0.0000  0.0000
16677SI     SI116677   8.858   7.808   0.328  0.0000  0.0000  0.0000
16678SI     SI116678   1.374   6.869   0.907  0.0000  0.0000  0.0000
16679SI     SI116679   1.906   8.849   9.481  0.0000  0.0000  0.0000
16680SI     SI116680   4.016   2.683   9.219  0.0000  0.0000  0.0000
16681SI     SI116681   3.095   8.637   8.362  0.0000  0.0000  0.0000
16682SI     SI116682   6.211   3.758   8.845  0.0000  0.0000  0.0000
16683SI     SI116683   6.977   5.080   9.324  0.0000  0.0000  0.0000
16684SI     SI116684   1.314   2.878   1.286  0.0000  0.0000  0.0000
16685SI     SI116685   4.563   7.896   9.565  0.0000  0.0000  0.0000
16686SI     SI116686   8.071   8.954   8.971  0.0000  0.0000  0.0000
16687SI     SI116687   2.437   1.872   0.323  0.0000  0.0000  0.0000
16688SI     SI116688   2.126   0.200   8.823  0.0000  0.0000  0.0000
16689SI     SI116689   5.343   4.797   0.232  0.0000  0.0000  0.0000
16690SI     SI116690   6.606   1.888   8.560  0.0000  0.0000  0.0000
16691SI     SI116691   0.901   6.828   0.079  0.0000  0.0000  0.0000
16692SI     SI116692   3.909   4.091   9.142  0.0000  0.0000  0.0000
16693SI     SI116693   8.534   6.829   0.583  0.0000  0.0000  0.0000
16694SI     SI116694   0.955   2.763   0.249  0.0000  0.0000  0.0000
16695SI     SI116695   9.142   5.783   0.992  0.0000  0.0000  0.0000
16696SI     SI116696   6.319   1.681   1.285  0.0000  0.0000  0.0000
16697SI     SI116697   4.466   3.005   8.849  0.0000  0.0000  0.0000
16698SI     SI116698   3.334   7.728   0.155  0.0000  0.0000  0.0000
16699SI     SI116699   2.899   2.644   8.841  0.0000  0.0000  0.0000
16700SI     SI116700   7.806   8.565   0.869  0.0000  0.0000  0.0000
16701SI     SI116701   2.428   3.700   1.177  0.0000  0.0000  0.0000
16702SI     SI116702   5.342   4.821   0.873  0.0000  0.0000  0.0000
16703SI     SI116703   7.428   2.011   0.738  0.0000  0.0000  0.0000
16704SI     SI116704   7.481   8.082   9.042  0.0000  0.0000  0.0000
16705SI     SI116705   8.220   1.766   0.609  0.0000  0.0000  0.0000
16706SI     SI116706   0.035   9.060   0.682  0.0000  0.0000  0.0000
16707SI     SI116707   5.814   0.349   9.277  0.0000  0.0000  0.0000
16708SI     SI116708   2.317   7.492   0.831  0.0000  0.0000  0.0000
16709SI     SI116709   1.616   9.387   9.172  0.0000  0.0000  0.0000
16710SI     SI116710   7.131   8.825   8.719  0.0000  0.0000  0.0000
16711SI     SI116711   0.111   2.777   0.601  0.0000  0.0000  0.0000
16712SI     SI116712   6.141   5.293   8.759  0.0000  0.0000  0.0000
16713SI     SI116713   4.921   0.220   0.681  0.0000  0.0000  0.0000
16714SI     SI116714   2.124   0.998   0.809  0.0000  0.0000  0.0000
16715SI     SI116715   4.187   4.420   9.383  0.0000  0.0000  0.0000
16716SI     SI116716   7.549   8.140   0.697  0.0000  0.0000  0.0000
16717SI     SI116717   2.116   7.115   8.347  0.0000  0.0000  0.0000
16718SI     SI116718   9.087   5.586   0.060  0.0000  0.0000  0.0000
16719SI     SI116719   3.971   7.526   8.837  0.0000  0.0000  0.0000
16720SI     SI116720   0.576   2.372   0.274  0.0000  0.0000  0.0000
16721SI     SI116721   6.379   2.960   0.096  0.0000  0.0000  0.0000
16722SI     SI116722   1.653   5.067   9.320  0.0000  0.0000  0.0000
16723SI     SI116723   9.047   0.897   0.242  0.0000  0.0000  0.0000
16724SI     SI116724   8.295   2.773   8.834  0.0000  0.0000  0.0000
16725SI     SI116725   9.149   5.366   0.757  0.0000  0.0000  0.0000
16726SI     SI116726   9.508   8.501   0.019  0.0000  0.0000  0.0000
16727SI     SI116727   0.588   3.880   0.921  0.0000  0.0000  0.0000
16728SI     SI116728   8.168   6.672   9.129  0.0000  0.0000  0.0000
16729SI     SI116729   5.052   7.053   8.385  0.0000  0.0000  0.0000
16730SI     SI116730   2.566   8.286   1.028  0.0000  0.0000  0.0000
16731SI     SI116731   0.723   1.855   9.047  0.0000  0.0000  0.0000
16732SI     SI116732   0.302   7.576   9.605  0.0000  0.0000  0.0000
16733SI     SI116733   5.709   3.088   8.457  0.0000  0.0000  0.0000
16734SI     SI116734   5.006   3.086   8.488  0.0000  0.0000  0.0000
16735SI     SI116735   6.550   2.028   9.366  0.0000  0.0000  0.0000
16736SI     SI116736   6.954   5.479   1.162  0.0000  0.0000  0.0000
16737SI     SI116737   4.370   1.516   8.985  0.0000  0.0000  0.0000
16738SI     SI116738   8.709   5.620   1.193  0.0000  0.0000  0.0000
16739SI     SI116739   2.993   7.743   0.965  0.0000  0.0000  0.0000
16740SI     SI116740   2.385   4.132   1.144  0.0000  0.0000  0.0000
16741SI     SI116741   4.522   7.761   0.665  0.0000  0.0000  0.0000
16742SI     SI116742   1.115   2.392   1.275  0.0000  0.0000  0.0000
16743SI     SI116743   6.589   4.092   8.579  0.0000  0.0000  0.0000
16744SI     SI116744   8.148   2.624   9.546  0.0000  0.0000  0.0000
16745SI     SI116745   7.707   8.843   0.005  0.0000  0.0000  0.0000
16746SI     SI116746   2.696   2.191   0.477  0.0000  0.0000  0.0000
16747SI     SI116747   2.848   4.326   9.379  0.0000  0.0000  0.0000
16748SI     SI116748   1.477   6.906   9.525  0.0000  0.0000  0.0000
16749SI     SI116749   8.941   4.761   0.163  0.0000  0.0000  0.0000
16750SI     SI116750   1.154   1.872   9.044  0.0000  0.0000  0.0000
16751SI     SI116751   7.200   5.819   8.255  0.0000  0.0000  0.0000
16752SI     SI116752   3.330   0.057   0.909  0.0000  0.0000  0.0000
16753SI     SI116753   5.522   8.913   1.321  0.0000  0.0000  0.0000
16754SI     SI116754   0.850   2.948   0.479  0.0000  0.0000  0.0000
16755SI     SI116755   4.615   8.091   1.122  0.0000  0.0000  0.0000
16756SI     SI116756   1.181   7.812   9.278  0.0000  0.0000  0.0000
16757SI     SI116757   5.305   3.188   8.261  0.0000  0.0000  0.0000
16758SI     SI116758   4.114   0.165   9.456  0.0000  0.0000  0.0000
16759SI     SI116759   2.040   3.189   0.093  0.0000  0.0000  0.0000
16760SI     SI116760   0.350   9.331   1.031  0.0000  0.0000  0.0000
16761SI     SI116761   3.261   6.755   0.253  0.0000  0.0000  0.0000
16762SI     SI116762   7.919   5.400   1.177  0.0000  0.0000  0.0000
16763SI     SI116763   8.878   0.661   8.615  0.0000  0.0000  0.0000
16764SI     SI116764   0.184   1.864   9.428  0.0000  0.0000  0.0000
16765SI     SI116765   5.243   3.748   9.278  0.0000  0.0000  0.0000
16766SI     SI116766   2.926   6.058   1.008  0.0000  0.0000  0.0000
16767SI     SI116767   1.359   2.252   1.418  0.0000  0.0000  0.0000
16768SI     SI116768   3.706   5.755   9.368  0.0000  0.0000  0.0000
16769SI     SI116769   6.005   0.220   9.079  0.0000  0.0000  0.0000
16770SI     SI116770   4.636   9.344   1.240  0.0000  0.0000  0.0000
16771SI     SI116771   3.380   1.656   8.690  0.0000  0.0000  0.0000
16772SI     SI116772   8.949   3.530   0.564  0.0000  0.0000  0.0000
16773SI     SI116773   2.663   0.971   0.606  0.0000  0.0000  0.0000
16774SI     SI116774   2.989   8.646   9.559  0.0000  0.0000  0.0000
16775SI     SI116775   7.144   3.032   0.991  0.0000  0.0000  0.0000
16776SI     SI116776   3.517   7.435   8.773  0.0000  0.0000  0.0000
16777SI     SI116777   0.818   5.970   8.836  0.0000  0.0000  0.0000
16778SI     SI116778   5.883   3.005   0.725  0.0000  0.0000  0.0000
16779SI     SI116779   5.984   4.368   0.778  0.0000  0.0000  0.0000
16780SI     SI116780   9.594   2.386   8.809  0.0000  0.0000  0.0000
16781SI     SI116781   8.503   5.043   8.586  0.0000  0.0000  0.0000
16782SI     SI116782   6.126   1.895   8.717  0.0000  0.0000  0.0000
16783SI     SI116783   8.546   4.123   0.312  0.0000  0.0000  0.0000
16784SI     SI116784   6.705   9.218   9.567  0.0000  0.0000  0.0000
16785SI     SI116785   8.042   1.541   0.519  0.0000  0.0000  0.0000
16786SI     SI116786   4.863   8.486   8.816  0.0000  0.0000  0.0000
16787SI     SI116787   1.807   2.380   1.100  0.0000  0.0000  0.0000
16788SI     SI116788   0.082   5.056   0.200  0.0000  0.0000  0.0000
16789SI     SI116789   4.283   5.981   0.821  0.0000  0.0000  0.0000
16790SI     SI116790   2.808   2.180   0.869  0.0000  0.0000  0.0000
16791SI     SI116791   3.494   0.320   8.656  0.0000  0.0000  0.0000
16792SI     SI116792   5.652   9.592   0.773  0.0000  0.0000  0.0000
16793SI     SI116793   9.531   6.079   0.674  0.0000  0.0000  0.0000
16794SI     SI116794   8.911   2.067   9.053  0.0000  0.0000  0.0000
16795SI     SI116795   4.270   1.229   8.911  0.0000  0.0000  0.0000
16796SI     SI116796   3.532   2.266   9.395  0.0000  0.0000  0.0000
16797SI     SI116797   0.525   2.387   8.603  0.0000  0.0000  0.0000
16798SI     SI116798   8.563   2.855   0.382  0.0000  0.0000  0.0000
16799SI     SI116799   2.239   3.105   8.729  0.0000  0.0000  0.0000
16800SI     SI116800   3.194   9.033   9.272  0.0000  0.0000  0.0000
16801SI     SI116801   8.874   8.128   8.782  0.0000  0.0000  0.0000
16802SI     SI116802   1.083   9.576   0.451  0.0000  0.0000  0.0000
16803TPSG   HA216803   6.643   8.457   8.083  0.0000  0.0000  0.0000
16803TPSG   CA216804   6.670   8.365   8.032  0.0000  0.0000  0.0000
16803TPSG   CA116805   6.695   8.246   8.102  0.0000  0.0000  0.0000
16803TPSG    Si16806   6.695   8.246   8.288  0.0000  0.0000  0.0000
16803TPSG   CA616807   6.736   8.132   8.030  0.0000  0.0000  0.0000
16803TPSG   HH616808   6.751   8.036   8.079  0.0000  0.0000  0.0000
16803TPSG   CA516809   6.759   8.139   7.891  0.0000  0.0000  0.0000
16803TPSG   HA516810   6.791   8.052   7.836  0.0000  0.0000  0.0000
16803TPSG   CA416811   6.736   8.260   7.823  0.0000  0.0000  0.0000
16803TPSG   HA416812   6.755   8.266   7.716  0.0000  0.0000  0.0000
16803TPSG   CA316813   6.689   8.372   7.893  0.0000  0.0000  0.0000
16803TPSG   HA316814   6.672   8.465   7.839  0.0000  0.0000  0.0000
16803TPSG    O116815   6.811   8.246   8.172  0.0000  0.0000  0.0000
16803TPSG    H616816   6.811   8.246   8.074  0.0000  0.0000  0.0000
16804TPSG   HA216817   8.150   4.211   1.609  0.0000  0.0000  0.0000
16804TPSG   CA216818   8.177   4.303   1.660  0.0000  0.0000  0.0000
16804TPSG   CA116819   8.202   4.422   1.590  0.0000  0.0000  0.0000
16804TPSG    Si16820   8.202   4.422   1.404  0.0000  0.0000  0.0000
16804TPSG   CA616821   8.243   4.536   1.662  0.0000  0.0000  0.0000
16804TPSG   HH616822   8.258   4.632   1.613  0.0000  0.0000  0.0000
16804TPSG   CA516823   8.266   4.529   1.801  0.0000  0.0000  0.0000
16804TPSG   HA516824   8.298   4.616   1.856  0.0000  0.0000  0.0000
16804TPSG   CA416825   8.243   4.408   1.869  0.0000  0.0000  0.0000
16804TPSG   HA416826   8.262   4.402   1.976  0.0000  0.0000  0.0000
16804TPSG   CA316827   8.196   4.296   1.799  0.0000  0.0000  0.0000
16804TPSG   HA316828   8.179   4.203   1.853  0.0000  0.0000  0.0000
16804TPSG    O116829   8.318   4.422   1.520  0.0000  0.0000  0.0000
16804TPSG    H616830   8.318   4.422   1.618  0.0000  0.0000  0.0000
16805TPSG   HA216831   5.822   1.632   1.608  0.0000  0.0000  0.0000
16805TPSG   CA216832   5.849   1.724   1.659  0.0000  0.0000  0.0000
16805TPSG   CA116833   5.874   1.843   1.589  0.0000  0.0000  0.0000
16805TPSG    Si16834   5.874   1.843   1.403  0.0000  0.0000  0.0000
16805TPSG   CA616835   5.915   1.957   1.661  0.0000  0.0000  0.0000
16805TPSG   HH616836   5.930   2.053   1.612  0.0000  0.0000  0.0000
16805TPSG   CA516837   5.938   1.950   1.800  0.0000  0.0000  0.0000
16805TPSG   HA516838   5.970   2.037   1.855  0.0000  0.0000  0.0000
16805TPSG   CA416839   5.915   1.829   1.868  0.0000  0.0000  0.0000
16805TPSG   HA416840   5.934   1.823   1.975  0.0000  0.0000  0.0000
16805TPSG   CA316841   5.868   1.717   1.798  0.0000  0.0000  0.0000
16805TPSG   HA316842   5.851   1.624   1.852  0.0000  0.0000  0.0000
16805TPSG    O116843   5.990   1.843   1.519  0.0000  0.0000  0.0000
16805TPSG    H616844   5.990   1.843   1.617  0.0000  0.0000  0.0000
16806TPSG   HA216845   6.310   2.648   8.025  0.0000  0.0000  0.0000
16806TPSG   CA216846   6.337   2.556   7.974  0.0000  0.0000  0.0000
16806TPSG   CA116847   6.362   2.437   8.044  0.0000  0.0000  0.0000
16806TPSG    Si16848   6.362   2.437   8.230  0.0000  0.0000  0.0000
16806TPSG   CA616849   6.403   2.323   7.972  0.0000  0.0000  0.0000
16806TPSG   HH616850   6.418   2.227   8.021  0.0000  0.0000  0.0000
16806TPSG   CA516851   6.426   2.330   7.833  0.0000  0.0000  0.0000
16806TPSG   HA516852   6.458   2.243   7.778  0.0000  0.0000  0.0000
16806TPSG   CA416853   6.403   2.451   7.765  0.0000  0.0000  0.0000
16806TPSG   HA416854   6.422   2.457   7.658  0.0000  0.0000  0.0000
16806TPSG   CA316855   6.356   2.563   7.835  0.0000  0.0000  0.0000
16806TPSG   HA316856   6.339   2.656   7.781  0.0000  0.0000  0.0000
16806TPSG    O116857   6.478   2.437   8.114  0.0000  0.0000  0.0000
16806TPSG    H616858   6.478   2.437   8.016  0.0000  0.0000  0.0000
16807TPSG   HA216859   7.296   2.484   8.008  0.0000  0.0000  0.0000
16807TPSG   CA216860   7.323   2.392   7.957  0.0000  0.0000  0.0000
16807TPSG   CA116861   7.348   2.273   8.027  0.0000  0.0000  0.0000
16807TPSG    Si16862   7.348   2.273   8.213  0.0000  0.0000  0.0000
16807TPSG   CA616863   7.389   2.159   7.955  0.0000  0.0000  0.0000
16807TPSG   HH616864   7.404   2.063   8.004  0.0000  0.0000  0.0000
16807TPSG   CA516865   7.412   2.166   7.816  0.0000  0.0000  0.0000
16807TPSG   HA516866   7.444   2.079   7.761  0.0000  0.0000  0.0000
16807TPSG   CA416867   7.389   2.287   7.748  0.0000  0.0000  0.0000
16807TPSG   HA416868   7.408   2.293   7.641  0.0000  0.0000  0.0000
16807TPSG   CA316869   7.342   2.399   7.818  0.0000  0.0000  0.0000
16807TPSG   HA316870   7.325   2.492   7.764  0.0000  0.0000  0.0000
16807TPSG    O116871   7.464   2.273   8.097  0.0000  0.0000  0.0000
16807TPSG    H616872   7.464   2.273   7.999  0.0000  0.0000  0.0000
16808TPSG   HA216873   4.232   6.656   1.629  0.0000  0.0000  0.0000
16808TPSG   CA216874   4.259   6.748   1.680  0.0000  0.0000  0.0000
16808TPSG   CA116875   4.284   6.867   1.610  0.0000  0.0000  0.0000
16808TPSG    Si16876   4.284   6.867   1.424  0.0000  0.0000  0.0000
16808TPSG   CA616877   4.325   6.981   1.682  0.0000  0.0000  0.0000
16808TPSG   HH616878   4.340   7.077   1.633  0.0000  0.0000  0.0000
16808TPSG   CA516879   4.348   6.974   1.821  0.0000  0.0000  0.0000
16808TPSG   HA516880   4.380   7.061   1.876  0.0000  0.0000  0.0000
16808TPSG   CA416881   4.325   6.853   1.889  0.0000  0.0000  0.0000
16808TPSG   HA416882   4.344   6.847   1.996  0.0000  0.0000  0.0000
16808TPSG   CA316883   4.278   6.741   1.819  0.0000  0.0000  0.0000
16808TPSG   HA316884   4.261   6.648   1.873  0.0000  0.0000  0.0000
16808TPSG    O116885   4.400   6.867   1.540  0.0000  0.0000  0.0000
16808TPSG    H616886   4.400   6.867   1.638  0.0000  0.0000  0.0000
16809TPSG   HA216887   6.505   3.957   7.986  0.0000  0.0000  0.0000
16809TPSG   CA216888   6.532   3.865   7.935  0.0000  0.0000  0.0000
16809TPSG   CA116889   6.557   3.746   8.005  0.0000  0.0000  0.0000
16809TPSG    Si16890   6.557   3.746   8.191  0.0000  0.0000  0.0000
16809TPSG   CA616891   6.598   3.632   7.933  0.0000  0.0000  0.0000
16809TPSG   HH616892   6.613   3.536   7.982  0.0000  0.0000  0.0000
16809TPSG   CA516893   6.621   3.639   7.794  0.0000  0.0000  0.0000
16809TPSG   HA516894   6.653   3.552   7.739  0.0000  0.0000  0.0000
16809TPSG   CA416895   6.598   3.760   7.726  0.0000  0.0000  0.0000
16809TPSG   HA416896   6.617   3.766   7.619  0.0000  0.0000  0.0000
16809TPSG   CA316897   6.551   3.872   7.796  0.0000  0.0000  0.0000
16809TPSG   HA316898   6.534   3.965   7.742  0.0000  0.0000  0.0000
16809TPSG    O116899   6.673   3.746   8.075  0.0000  0.0000  0.0000
16809TPSG    H616900   6.673   3.746   7.977  0.0000  0.0000  0.0000
16810TPSG   HA216901   7.879   3.659   1.641  0.0000  0.0000  0.0000
16810TPSG   CA216902   7.906   3.751   1.692  0.0000  0.0000  0.0000
16810TPSG   CA116903   7.931   3.870   1.622  0.0000  0.0000  0.0000
16810TPSG    Si16904   7.931   3.870   1.436  0.0000  0.0000  0.0000
16810TPSG   CA616905   7.972   3.984   1.694  0.0000  0.0000  0.0000
16810TPSG   HH616906   7.987   4.080   1.645  0.0000  0.0000  0.0000
16810TPSG   CA516907   7.995   3.977   1.833  0.0000  0.0000  0.0000
16810TPSG   HA516908   8.027   4.064   1.888  0.0000  0.0000  0.0000
16810TPSG   CA416909   7.972   3.856   1.901  0.0000  0.0000  0.0000
16810TPSG   HA416910   7.991   3.850   2.008  0.0000  0.0000  0.0000
16810TPSG   CA316911   7.925   3.744   1.831  0.0000  0.0000  0.0000
16810TPSG   HA316912   7.908   3.651   1.885  0.0000  0.0000  0.0000
16810TPSG    O116913   8.047   3.870   1.552  0.0000  0.0000  0.0000
16810TPSG    H616914   8.047   3.870   1.650  0.0000  0.0000  0.0000
16811TPSG   HA216915   1.897   1.588   7.984  0.0000  0.0000  0.0000
16811TPSG   CA216916   1.924   1.496   7.933  0.0000  0.0000  0.0000
16811TPSG   CA116917   1.949   1.377   8.003  0.0000  0.0000  0.0000
16811TPSG    Si16918   1.949   1.377   8.189  0.0000  0.0000  0.0000
16811TPSG   CA616919   1.990   1.263   7.931  0.0000  0.0000  0.0000
16811TPSG   HH616920   2.005   1.167   7.980  0.0000  0.0000  0.0000
16811TPSG   CA516921   2.013   1.270   7.792  0.0000  0.0000  0.0000
16811TPSG   HA516922   2.045   1.183   7.737  0.0000  0.0000  0.0000
16811TPSG   CA416923   1.990   1.391   7.724  0.0000  0.0000  0.0000
16811TPSG   HA416924   2.009   1.397   7.617  0.0000  0.0000  0.0000
16811TPSG   CA316925   1.943   1.503   7.794  0.0000  0.0000  0.0000
16811TPSG   HA316926   1.926   1.596   7.740  0.0000  0.0000  0.0000
16811TPSG    O116927   2.065   1.377   8.073  0.0000  0.0000  0.0000
16811TPSG    H616928   2.065   1.377   7.975  0.0000  0.0000  0.0000
16812TPSG   HA216929   5.975   4.058   8.024  0.0000  0.0000  0.0000
16812TPSG   CA216930   6.002   3.966   7.973  0.0000  0.0000  0.0000
16812TPSG   CA116931   6.027   3.847   8.043  0.0000  0.0000  0.0000
16812TPSG    Si16932   6.027   3.847   8.229  0.0000  0.0000  0.0000
16812TPSG   CA616933   6.068   3.733   7.971  0.0000  0.0000  0.0000
16812TPSG   HH616934   6.083   3.637   8.020  0.0000  0.0000  0.0000
16812TPSG   CA516935   6.091   3.740   7.832  0.0000  0.0000  0.0000
16812TPSG   HA516936   6.123   3.653   7.777  0.0000  0.0000  0.0000
16812TPSG   CA416937   6.068   3.861   7.764  0.0000  0.0000  0.0000
16812TPSG   HA416938   6.087   3.867   7.657  0.0000  0.0000  0.0000
16812TPSG   CA316939   6.021   3.973   7.834  0.0000  0.0000  0.0000
16812TPSG   HA316940   6.004   4.066   7.780  0.0000  0.0000  0.0000
16812TPSG    O116941   6.143   3.847   8.113  0.0000  0.0000  0.0000
16812TPSG    H616942   6.143   3.847   8.015  0.0000  0.0000  0.0000
16813TPSG   HA216943   9.565   5.578   8.087  0.0000  0.0000  0.0000
16813TPSG   CA216944   9.526   5.491   8.036  0.0000  0.0000  0.0000
16813TPSG   CA116945   9.469   5.383   8.106  0.0000  0.0000  0.0000
16813TPSG    Si16946   9.469   5.383   8.292  0.0000  0.0000  0.0000
16813TPSG   CA616947   9.427   5.269   8.034  0.0000  0.0000  0.0000
16813TPSG   HH616948   9.377   5.186   8.083  0.0000  0.0000  0.0000
16813TPSG   CA516949   9.449   5.261   7.895  0.0000  0.0000  0.0000
16813TPSG   HA516950   9.418   5.172   7.840  0.0000  0.0000  0.0000
16813TPSG   CA416951   9.509   5.367   7.827  0.0000  0.0000  0.0000
16813TPSG   HA416952   9.528   5.360   7.720  0.0000  0.0000  0.0000
16813TPSG   CA316953   9.545   5.483   7.897  0.0000  0.0000  0.0000
16813TPSG   HA316954   9.592   5.566   7.843  0.0000  0.0000  0.0000
16813TPSG    O116955   9.558   5.308   8.176  0.0000  0.0000  0.0000
16813TPSG    H616956   9.558   5.308   8.078  0.0000  0.0000  0.0000
16814TPSG   HA216957   6.772   9.719   8.034  0.0000  0.0000  0.0000
16814TPSG   CA216958   6.799   9.627   7.983  0.0000  0.0000  0.0000
16814TPSG   CA116959   6.824   9.508   8.053  0.0000  0.0000  0.0000
16814TPSG    Si16960   6.824   9.508   8.239  0.0000  0.0000  0.0000
16814TPSG   CA616961   6.865   9.394   7.981  0.0000  0.0000  0.0000
16814TPSG   HH616962   6.880   9.298   8.030  0.0000  0.0000  0.0000
16814TPSG   CA516963   6.888   9.401   7.842  0.0000  0.0000  0.0000
16814TPSG   HA516964   6.920   9.314   7.787  0.0000  0.0000  0.0000
16814TPSG   CA416965   6.865   9.522   7.774  0.0000  0.0000  0.0000
16814TPSG   HA416966   6.884   9.528   7.667  0.0000  0.0000  0.0000
16814TPSG   CA316967   6.818   9.634   7.844  0.0000  0.0000  0.0000
16814TPSG   HA316968   6.801   9.727   7.790  0.0000  0.0000  0.0000
16814TPSG    O116969   6.940   9.508   8.123  0.0000  0.0000  0.0000
16814TPSG    H616970   6.940   9.508   8.025  0.0000  0.0000  0.0000
16815TPSG   HA216971   3.335   0.178   1.562  0.0000  0.0000  0.0000
16815TPSG   CA216972   3.362   0.270   1.613  0.0000  0.0000  0.0000
16815TPSG   CA116973   3.387   0.389   1.543  0.0000  0.0000  0.0000
16815TPSG    Si16974   3.387   0.389   1.357  0.0000  0.0000  0.0000
16815TPSG   CA616975   3.428   0.503   1.615  0.0000  0.0000  0.0000
16815TPSG   HH616976   3.443   0.599   1.566  0.0000  0.0000  0.0000
16815TPSG   CA516977   3.451   0.496   1.754  0.0000  0.0000  0.0000
16815TPSG   HA516978   3.483   0.583   1.809  0.0000  0.0000  0.0000
16815TPSG   CA416979   3.428   0.375   1.822  0.0000  0.0000  0.0000
16815TPSG   HA416980   3.447   0.369   1.929  0.0000  0.0000  0.0000
16815TPSG   CA316981   3.381   0.263   1.752  0.0000  0.0000  0.0000
16815TPSG   HA316982   3.364   0.170   1.806  0.0000  0.0000  0.0000
16815TPSG    O116983   3.503   0.389   1.473  0.0000  0.0000  0.0000
16815TPSG    H616984   3.503   0.389   1.571  0.0000  0.0000  0.0000
16816TPSG   HA216985   7.525   0.233   1.663  0.0000  0.0000  0.0000
16816TPSG   CA216986   7.519   0.328   1.714  0.0000  0.0000  0.0000
16816TPSG   CA116987   7.502   0.449   1.644  0.0000  0.0000  0.0000
16816TPSG    Si16988   7.502   0.449   1.458  0.0000  0.0000  0.0000
16816TPSG   CA616989   7.502   0.570   1.716  0.0000  0.0000  0.0000
16816TPSG   HH616990   7.483   0.665   1.667  0.0000  0.0000  0.0000
16816TPSG   CA516991   7.525   0.571   1.855  0.0000  0.0000  0.0000
16816TPSG   HA516992   7.526   0.664   1.910  0.0000  0.0000  0.0000
16816TPSG   CA416993   7.545   0.450   1.923  0.0000  0.0000  0.0000
16816TPSG   HA416994   7.565   0.451   2.030  0.0000  0.0000  0.0000
16816TPSG   CA316995   7.539   0.329   1.853  0.0000  0.0000  0.0000
16816TPSG   HA316996   7.555   0.236   1.907  0.0000  0.0000  0.0000
16816TPSG    O116997   7.611   0.489   1.574  0.0000  0.0000  0.0000
16816TPSG    H616998   7.611   0.489   1.672  0.0000  0.0000  0.0000
16817TPSG   HA216999   7.474   1.974   1.463  0.0000  0.0000  0.0000
16817TPSG   CA217000   7.501   2.066   1.514  0.0000  0.0000  0.0000
16817TPSG   CA117001   7.526   2.185   1.444  0.0000  0.0000  0.0000
16817TPSG    Si17002   7.526   2.185   1.258  0.0000  0.0000  0.0000
16817TPSG   CA617003   7.567   2.299   1.516  0.0000  0.0000  0.0000
16817TPSG   HH617004   7.582   2.395   1.467  0.0000  0.0000  0.0000
16817TPSG   CA517005   7.590   2.292   1.655  0.0000  0.0000  0.0000
16817TPSG   HA517006   7.622   2.379   1.710  0.0000  0.0000  0.0000
16817TPSG   CA417007   7.567   2.171   1.723  0.0000  0.0000  0.0000
16817TPSG   HA417008   7.586   2.165   1.830  0.0000  0.0000  0.0000
16817TPSG   CA317009   7.520   2.059   1.653  0.0000  0.0000  0.0000
16817TPSG   HA317010   7.503   1.966   1.707  0.0000  0.0000  0.0000
16817TPSG    O117011   7.642   2.185   1.374  0.0000  0.0000  0.0000
16817TPSG    H617012   7.642   2.185   1.472  0.0000  0.0000  0.0000
16818TPSG   HA217013   8.081   0.228   8.071  0.0000  0.0000  0.0000
16818TPSG   CA217014   8.108   0.136   8.020  0.0000  0.0000  0.0000
16818TPSG   CA117015   8.133   0.017   8.090  0.0000  0.0000  0.0000
16818TPSG    Si17016   8.133   0.017   8.276  0.0000  0.0000  0.0000
16818TPSG   CA617017   8.174  -0.097   8.018  0.0000  0.0000  0.0000
16818TPSG   HH617018   8.189  -0.193   8.067  0.0000  0.0000  0.0000
16818TPSG   CA517019   8.197  -0.090   7.879  0.0000  0.0000  0.0000
16818TPSG   HA517020   8.229  -0.177   7.824  0.0000  0.0000  0.0000
16818TPSG   CA417021   8.174   0.031   7.811  0.0000  0.0000  0.0000
16818TPSG   HA417022   8.193   0.037   7.704  0.0000  0.0000  0.0000
16818TPSG   CA317023   8.127   0.143   7.881  0.0000  0.0000  0.0000
16818TPSG   HA317024   8.110   0.236   7.827  0.0000  0.0000  0.0000
16818TPSG    O117025   8.249   0.017   8.160  0.0000  0.0000  0.0000
16818TPSG    H617026   8.249   0.017   8.062  0.0000  0.0000  0.0000
16819TPSG   HA217027   0.675   8.750   8.016  0.0000  0.0000  0.0000
16819TPSG   CA217028   0.702   8.658   7.965  0.0000  0.0000  0.0000
16819TPSG   CA117029   0.727   8.539   8.035  0.0000  0.0000  0.0000
16819TPSG    Si17030   0.727   8.539   8.221  0.0000  0.0000  0.0000
16819TPSG   CA617031   0.768   8.425   7.963  0.0000  0.0000  0.0000
16819TPSG   HH617032   0.783   8.329   8.012  0.0000  0.0000  0.0000
16819TPSG   CA517033   0.791   8.432   7.824  0.0000  0.0000  0.0000
16819TPSG   HA517034   0.823   8.345   7.769  0.0000  0.0000  0.0000
16819TPSG   CA417035   0.768   8.553   7.756  0.0000  0.0000  0.0000
16819TPSG   HA417036   0.787   8.559   7.649  0.0000  0.0000  0.0000
16819TPSG   CA317037   0.721   8.665   7.826  0.0000  0.0000  0.0000
16819TPSG   HA317038   0.704   8.758   7.772  0.0000  0.0000  0.0000
16819TPSG    O117039   0.843   8.539   8.105  0.0000  0.0000  0.0000
16819TPSG    H617040   0.843   8.539   8.007  0.0000  0.0000  0.0000
16820TPSG   HA217041   9.129   4.903   1.620  0.0000  0.0000  0.0000
16820TPSG   CA217042   9.156   4.995   1.671  0.0000  0.0000  0.0000
16820TPSG   CA117043   9.181   5.114   1.601  0.0000  0.0000  0.0000
16820TPSG    Si17044   9.181   5.114   1.415  0.0000  0.0000  0.0000
16820TPSG   CA617045   9.222   5.228   1.673  0.0000  0.0000  0.0000
16820TPSG   HH617046   9.237   5.324   1.624  0.0000  0.0000  0.0000
16820TPSG   CA517047   9.245   5.221   1.812  0.0000  0.0000  0.0000
16820TPSG   HA517048   9.277   5.308   1.867  0.0000  0.0000  0.0000
16820TPSG   CA417049   9.222   5.100   1.880  0.0000  0.0000  0.0000
16820TPSG   HA417050   9.241   5.094   1.987  0.0000  0.0000  0.0000
16820TPSG   CA317051   9.175   4.988   1.810  0.0000  0.0000  0.0000
16820TPSG   HA317052   9.158   4.895   1.864  0.0000  0.0000  0.0000
16820TPSG    O117053   9.297   5.114   1.531  0.0000  0.0000  0.0000
16820TPSG    H617054   9.297   5.114   1.629  0.0000  0.0000  0.0000
16821TPSG   HA217055   6.114   6.762   7.990  0.0000  0.0000  0.0000
16821TPSG   CA217056   6.141   6.670   7.939  0.0000  0.0000  0.0000
16821TPSG   CA117057   6.166   6.551   8.009  0.0000  0.0000  0.0000
16821TPSG    Si17058   6.166   6.551   8.195  0.0000  0.0000  0.0000
16821TPSG   CA617059   6.207   6.437   7.937  0.0000  0.0000  0.0000
16821TPSG   HH617060   6.222   6.341   7.986  0.0000  0.0000  0.0000
16821TPSG   CA517061   6.230   6.444   7.798  0.0000  0.0000  0.0000
16821TPSG   HA517062   6.262   6.357   7.743  0.0000  0.0000  0.0000
16821TPSG   CA417063   6.207   6.565   7.730  0.0000  0.0000  0.0000
16821TPSG   HA417064   6.226   6.571   7.623  0.0000  0.0000  0.0000
16821TPSG   CA317065   6.160   6.677   7.800  0.0000  0.0000  0.0000
16821TPSG   HA317066   6.143   6.770   7.746  0.0000  0.0000  0.0000
16821TPSG    O117067   6.282   6.551   8.079  0.0000  0.0000  0.0000
16821TPSG    H617068   6.282   6.551   7.981  0.0000  0.0000  0.0000
16822TPSG   HA217069   7.934   0.046   8.052  0.0000  0.0000  0.0000
16822TPSG   CA217070   7.940   0.141   8.001  0.0000  0.0000  0.0000
16822TPSG   CA117071   7.957   0.262   8.071  0.0000  0.0000  0.0000
16822TPSG    Si17072   7.957   0.262   8.257  0.0000  0.0000  0.0000
16822TPSG   CA617073   7.957   0.383   7.999  0.0000  0.0000  0.0000
16822TPSG   HH617074   7.976   0.478   8.048  0.0000  0.0000  0.0000
16822TPSG   CA517075   7.934   0.384   7.860  0.0000  0.0000  0.0000
16822TPSG   HA517076   7.933   0.477   7.805  0.0000  0.0000  0.0000
16822TPSG   CA417077   7.914   0.263   7.792  0.0000  0.0000  0.0000
16822TPSG   HA417078   7.894   0.264   7.685  0.0000  0.0000  0.0000
16822TPSG   CA317079   7.920   0.142   7.862  0.0000  0.0000  0.0000
16822TPSG   HA317080   7.904   0.049   7.808  0.0000  0.0000  0.0000
16822TPSG    O117081   7.848   0.302   8.141  0.0000  0.0000  0.0000
16822TPSG    H617082   7.848   0.302   8.043  0.0000  0.0000  0.0000
16823TPSG   HA217083   4.625   7.976   1.612  0.0000  0.0000  0.0000
16823TPSG   CA217084   4.652   8.068   1.663  0.0000  0.0000  0.0000
16823TPSG   CA117085   4.677   8.187   1.593  0.0000  0.0000  0.0000
16823TPSG    Si17086   4.677   8.187   1.407  0.0000  0.0000  0.0000
16823TPSG   CA617087   4.718   8.301   1.665  0.0000  0.0000  0.0000
16823TPSG   HH617088   4.733   8.397   1.616  0.0000  0.0000  0.0000
16823TPSG   CA517089   4.741   8.294   1.804  0.0000  0.0000  0.0000
16823TPSG   HA517090   4.773   8.381   1.859  0.0000  0.0000  0.0000
16823TPSG   CA417091   4.718   8.173   1.872  0.0000  0.0000  0.0000
16823TPSG   HA417092   4.737   8.167   1.979  0.0000  0.0000  0.0000
16823TPSG   CA317093   4.671   8.061   1.802  0.0000  0.0000  0.0000
16823TPSG   HA317094   4.654   7.968   1.856  0.0000  0.0000  0.0000
16823TPSG    O117095   4.793   8.187   1.523  0.0000  0.0000  0.0000
16823TPSG    H617096   4.793   8.187   1.621  0.0000  0.0000  0.0000
16824TPSG   HA217097   5.048   2.132   7.948  0.0000  0.0000  0.0000
16824TPSG   CA217098   5.075   2.040   7.897  0.0000  0.0000  0.0000
16824TPSG   CA117099   5.100   1.921   7.967  0.0000  0.0000  0.0000
16824TPSG    Si17100   5.100   1.921   8.153  0.0000  0.0000  0.0000
16824TPSG   CA617101   5.141   1.807   7.895  0.0000  0.0000  0.0000
16824TPSG   HH617102   5.156   1.711   7.944  0.0000  0.0000  0.0000
16824TPSG   CA517103   5.164   1.814   7.756  0.0000  0.0000  0.0000
16824TPSG   HA517104   5.196   1.727   7.701  0.0000  0.0000  0.0000
16824TPSG   CA417105   5.141   1.935   7.688  0.0000  0.0000  0.0000
16824TPSG   HA417106   5.160   1.941   7.581  0.0000  0.0000  0.0000
16824TPSG   CA317107   5.094   2.047   7.758  0.0000  0.0000  0.0000
16824TPSG   HA317108   5.077   2.140   7.704  0.0000  0.0000  0.0000
16824TPSG    O117109   5.216   1.921   8.037  0.0000  0.0000  0.0000
16824TPSG    H617110   5.216   1.921   7.939  0.0000  0.0000  0.0000
16825TPSG   HA217111   4.315   9.182   1.602  0.0000  0.0000  0.0000
16825TPSG   CA217112   4.342   9.274   1.653  0.0000  0.0000  0.0000
16825TPSG   CA117113   4.367   9.393   1.583  0.0000  0.0000  0.0000
16825TPSG    Si17114   4.367   9.393   1.397  0.0000  0.0000  0.0000
16825TPSG   CA617115   4.408   9.507   1.655  0.0000  0.0000  0.0000
16825TPSG   HH617116   4.423   9.603   1.606  0.0000  0.0000  0.0000
16825TPSG   CA517117   4.431   9.500   1.794  0.0000  0.0000  0.0000
16825TPSG   HA517118   4.463   9.587   1.849  0.0000  0.0000  0.0000
16825TPSG   CA417119   4.408   9.379   1.862  0.0000  0.0000  0.0000
16825TPSG   HA417120   4.427   9.373   1.969  0.0000  0.0000  0.0000
16825TPSG   CA317121   4.361   9.267   1.792  0.0000  0.0000  0.0000
16825TPSG   HA317122   4.344   9.174   1.846  0.0000  0.0000  0.0000
16825TPSG    O117123   4.483   9.393   1.513  0.0000  0.0000  0.0000
16825TPSG    H617124   4.483   9.393   1.611  0.0000  0.0000  0.0000
16826TPSG   HA217125   8.534   2.181   7.968  0.0000  0.0000  0.0000
16826TPSG   CA217126   8.561   2.089   7.917  0.0000  0.0000  0.0000
16826TPSG   CA117127   8.586   1.970   7.987  0.0000  0.0000  0.0000
16826TPSG    Si17128   8.586   1.970   8.173  0.0000  0.0000  0.0000
16826TPSG   CA617129   8.627   1.856   7.915  0.0000  0.0000  0.0000
16826TPSG   HH617130   8.642   1.760   7.964  0.0000  0.0000  0.0000
16826TPSG   CA517131   8.650   1.863   7.776  0.0000  0.0000  0.0000
16826TPSG   HA517132   8.682   1.776   7.721  0.0000  0.0000  0.0000
16826TPSG   CA417133   8.627   1.984   7.708  0.0000  0.0000  0.0000
16826TPSG   HA417134   8.646   1.990   7.601  0.0000  0.0000  0.0000
16826TPSG   CA317135   8.580   2.096   7.778  0.0000  0.0000  0.0000
16826TPSG   HA317136   8.563   2.189   7.724  0.0000  0.0000  0.0000
16826TPSG    O117137   8.702   1.970   8.057  0.0000  0.0000  0.0000
16826TPSG    H617138   8.702   1.970   7.959  0.0000  0.0000  0.0000
16827TPSG   HA217139   1.796   6.956   7.988  0.0000  0.0000  0.0000
16827TPSG   CA217140   1.823   6.864   7.937  0.0000  0.0000  0.0000
16827TPSG   CA117141   1.848   6.745   8.007  0.0000  0.0000  0.0000
16827TPSG    Si17142   1.848   6.745   8.193  0.0000  0.0000  0.0000
16827TPSG   CA617143   1.889   6.631   7.935  0.0000  0.0000  0.0000
16827TPSG   HH617144   1.904   6.535   7.984  0.0000  0.0000  0.0000
16827TPSG   CA517145   1.912   6.638   7.796  0.0000  0.0000  0.0000
16827TPSG   HA517146   1.944   6.551   7.741  0.0000  0.0000  0.0000
16827TPSG   CA417147   1.889   6.759   7.728  0.0000  0.0000  0.0000
16827TPSG   HA417148   1.908   6.765   7.621  0.0000  0.0000  0.0000
16827TPSG   CA317149   1.842   6.871   7.798  0.0000  0.0000  0.0000
16827TPSG   HA317150   1.825   6.964   7.744  0.0000  0.0000  0.0000
16827TPSG    O117151   1.964   6.745   8.077  0.0000  0.0000  0.0000
16827TPSG    H617152   1.964   6.745   7.979  0.0000  0.0000  0.0000
16828TPSG   HA217153   4.836   9.386   7.956  0.0000  0.0000  0.0000
16828TPSG   CA217154   4.863   9.294   7.905  0.0000  0.0000  0.0000
16828TPSG   CA117155   4.888   9.175   7.975  0.0000  0.0000  0.0000
16828TPSG    Si17156   4.888   9.175   8.161  0.0000  0.0000  0.0000
16828TPSG   CA617157   4.929   9.061   7.903  0.0000  0.0000  0.0000
16828TPSG   HH617158   4.944   8.965   7.952  0.0000  0.0000  0.0000
16828TPSG   CA517159   4.952   9.068   7.764  0.0000  0.0000  0.0000
16828TPSG   HA517160   4.984   8.981   7.709  0.0000  0.0000  0.0000
16828TPSG   CA417161   4.929   9.189   7.696  0.0000  0.0000  0.0000
16828TPSG   HA417162   4.948   9.195   7.589  0.0000  0.0000  0.0000
16828TPSG   CA317163   4.882   9.301   7.766  0.0000  0.0000  0.0000
16828TPSG   HA317164   4.865   9.394   7.712  0.0000  0.0000  0.0000
16828TPSG    O117165   5.004   9.175   8.045  0.0000  0.0000  0.0000
16828TPSG    H617166   5.004   9.175   7.947  0.0000  0.0000  0.0000
16829TPSG   HA217167   4.450   4.312   1.482  0.0000  0.0000  0.0000
16829TPSG   CA217168   4.477   4.404   1.533  0.0000  0.0000  0.0000
16829TPSG   CA117169   4.502   4.523   1.463  0.0000  0.0000  0.0000
16829TPSG    Si17170   4.502   4.523   1.277  0.0000  0.0000  0.0000
16829TPSG   CA617171   4.543   4.637   1.535  0.0000  0.0000  0.0000
16829TPSG   HH617172   4.558   4.733   1.486  0.0000  0.0000  0.0000
16829TPSG   CA517173   4.566   4.630   1.674  0.0000  0.0000  0.0000
16829TPSG   HA517174   4.598   4.717   1.729  0.0000  0.0000  0.0000
16829TPSG   CA417175   4.543   4.509   1.742  0.0000  0.0000  0.0000
16829TPSG   HA417176   4.562   4.503   1.849  0.0000  0.0000  0.0000
16829TPSG   CA317177   4.496   4.397   1.672  0.0000  0.0000  0.0000
16829TPSG   HA317178   4.479   4.304   1.726  0.0000  0.0000  0.0000
16829TPSG    O117179   4.618   4.523   1.393  0.0000  0.0000  0.0000
16829TPSG    H617180   4.618   4.523   1.491  0.0000  0.0000  0.0000
16830TPSG   HA217181   1.915   6.813   1.644  0.0000  0.0000  0.0000
16830TPSG   CA217182   1.909   6.908   1.695  0.0000  0.0000  0.0000
16830TPSG   CA117183   1.892   7.029   1.625  0.0000  0.0000  0.0000
16830TPSG    Si17184   1.892   7.029   1.439  0.0000  0.0000  0.0000
16830TPSG   CA617185   1.892   7.150   1.697  0.0000  0.0000  0.0000
16830TPSG   HH617186   1.873   7.245   1.648  0.0000  0.0000  0.0000
16830TPSG   CA517187   1.915   7.151   1.836  0.0000  0.0000  0.0000
16830TPSG   HA517188   1.916   7.244   1.891  0.0000  0.0000  0.0000
16830TPSG   CA417189   1.935   7.030   1.904  0.0000  0.0000  0.0000
16830TPSG   HA417190   1.955   7.031   2.011  0.0000  0.0000  0.0000
16830TPSG   CA317191   1.929   6.909   1.834  0.0000  0.0000  0.0000
16830TPSG   HA317192   1.945   6.816   1.888  0.0000  0.0000  0.0000
16830TPSG    O117193   2.001   7.069   1.555  0.0000  0.0000  0.0000
16830TPSG    H617194   2.001   7.069   1.653  0.0000  0.0000  0.0000
16831TPSG   HA217195   5.845   8.307   1.577  0.0000  0.0000  0.0000
16831TPSG   CA217196   5.872   8.399   1.628  0.0000  0.0000  0.0000
16831TPSG   CA117197   5.897   8.518   1.558  0.0000  0.0000  0.0000
16831TPSG    Si17198   5.897   8.518   1.372  0.0000  0.0000  0.0000
16831TPSG   CA617199   5.938   8.632   1.630  0.0000  0.0000  0.0000
16831TPSG   HH617200   5.953   8.728   1.581  0.0000  0.0000  0.0000
16831TPSG   CA517201   5.961   8.625   1.769  0.0000  0.0000  0.0000
16831TPSG   HA517202   5.993   8.712   1.824  0.0000  0.0000  0.0000
16831TPSG   CA417203   5.938   8.504   1.837  0.0000  0.0000  0.0000
16831TPSG   HA417204   5.957   8.498   1.944  0.0000  0.0000  0.0000
16831TPSG   CA317205   5.891   8.392   1.767  0.0000  0.0000  0.0000
16831TPSG   HA317206   5.874   8.299   1.821  0.0000  0.0000  0.0000
16831TPSG    O117207   6.013   8.518   1.488  0.0000  0.0000  0.0000
16831TPSG    H617208   6.013   8.518   1.586  0.0000  0.0000  0.0000
16832TPSG   HA217209   0.812   3.302   8.012  0.0000  0.0000  0.0000
16832TPSG   CA217210   0.839   3.210   7.961  0.0000  0.0000  0.0000
16832TPSG   CA117211   0.864   3.091   8.031  0.0000  0.0000  0.0000
16832TPSG    Si17212   0.864   3.091   8.217  0.0000  0.0000  0.0000
16832TPSG   CA617213   0.905   2.977   7.959  0.0000  0.0000  0.0000
16832TPSG   HH617214   0.920   2.881   8.008  0.0000  0.0000  0.0000
16832TPSG   CA517215   0.928   2.984   7.820  0.0000  0.0000  0.0000
16832TPSG   HA517216   0.960   2.897   7.765  0.0000  0.0000  0.0000
16832TPSG   CA417217   0.905   3.105   7.752  0.0000  0.0000  0.0000
16832TPSG   HA417218   0.924   3.111   7.645  0.0000  0.0000  0.0000
16832TPSG   CA317219   0.858   3.217   7.822  0.0000  0.0000  0.0000
16832TPSG   HA317220   0.841   3.310   7.768  0.0000  0.0000  0.0000
16832TPSG    O117221   0.980   3.091   8.101  0.0000  0.0000  0.0000
16832TPSG    H617222   0.980   3.091   8.003  0.0000  0.0000  0.0000
16833TPSG   HA217223   7.237   3.373   1.578  0.0000  0.0000  0.0000
16833TPSG   CA217224   7.264   3.465   1.629  0.0000  0.0000  0.0000
16833TPSG   CA117225   7.289   3.584   1.559  0.0000  0.0000  0.0000
16833TPSG    Si17226   7.289   3.584   1.373  0.0000  0.0000  0.0000
16833TPSG   CA617227   7.330   3.698   1.631  0.0000  0.0000  0.0000
16833TPSG   HH617228   7.345   3.794   1.582  0.0000  0.0000  0.0000
16833TPSG   CA517229   7.353   3.691   1.770  0.0000  0.0000  0.0000
16833TPSG   HA517230   7.385   3.778   1.825  0.0000  0.0000  0.0000
16833TPSG   CA417231   7.330   3.570   1.838  0.0000  0.0000  0.0000
16833TPSG   HA417232   7.349   3.564   1.945  0.0000  0.0000  0.0000
16833TPSG   CA317233   7.283   3.458   1.768  0.0000  0.0000  0.0000
16833TPSG   HA317234   7.266   3.365   1.822  0.0000  0.0000  0.0000
16833TPSG    O117235   7.405   3.584   1.489  0.0000  0.0000  0.0000
16833TPSG    H617236   7.405   3.584   1.587  0.0000  0.0000  0.0000
16834TPSG   HA217237   0.790   4.478   7.980  0.0000  0.0000  0.0000
16834TPSG   CA217238   0.817   4.386   7.929  0.0000  0.0000  0.0000
16834TPSG   CA117239   0.842   4.267   7.999  0.0000  0.0000  0.0000
16834TPSG    Si17240   0.842   4.267   8.185  0.0000  0.0000  0.0000
16834TPSG   CA617241   0.883   4.153   7.927  0.0000  0.0000  0.0000
16834TPSG   HH617242   0.898   4.057   7.976  0.0000  0.0000  0.0000
16834TPSG   CA517243   0.906   4.160   7.788  0.0000  0.0000  0.0000
16834TPSG   HA517244   0.938   4.073   7.733  0.0000  0.0000  0.0000
16834TPSG   CA417245   0.883   4.281   7.720  0.0000  0.0000  0.0000
16834TPSG   HA417246   0.902   4.287   7.613  0.0000  0.0000  0.0000
16834TPSG   CA317247   0.836   4.393   7.790  0.0000  0.0000  0.0000
16834TPSG   HA317248   0.819   4.486   7.736  0.0000  0.0000  0.0000
16834TPSG    O117249   0.958   4.267   8.069  0.0000  0.0000  0.0000
16834TPSG    H617250   0.958   4.267   7.971  0.0000  0.0000  0.0000
16835TPSG   HA217251   1.598   5.559   7.976  0.0000  0.0000  0.0000
16835TPSG   CA217252   1.625   5.467   7.925  0.0000  0.0000  0.0000
16835TPSG   CA117253   1.650   5.348   7.995  0.0000  0.0000  0.0000
16835TPSG    Si17254   1.650   5.348   8.181  0.0000  0.0000  0.0000
16835TPSG   CA617255   1.691   5.234   7.923  0.0000  0.0000  0.0000
16835TPSG   HH617256   1.706   5.138   7.972  0.0000  0.0000  0.0000
16835TPSG   CA517257   1.714   5.241   7.784  0.0000  0.0000  0.0000
16835TPSG   HA517258   1.746   5.154   7.729  0.0000  0.0000  0.0000
16835TPSG   CA417259   1.691   5.362   7.716  0.0000  0.0000  0.0000
16835TPSG   HA417260   1.710   5.368   7.609  0.0000  0.0000  0.0000
16835TPSG   CA317261   1.644   5.474   7.786  0.0000  0.0000  0.0000
16835TPSG   HA317262   1.627   5.567   7.732  0.0000  0.0000  0.0000
16835TPSG    O117263   1.766   5.348   8.065  0.0000  0.0000  0.0000
16835TPSG    H617264   1.766   5.348   7.967  0.0000  0.0000  0.0000
16836TPSG   HA217265   5.228   7.151   7.997  0.0000  0.0000  0.0000
16836TPSG   CA217266   5.255   7.059   7.946  0.0000  0.0000  0.0000
16836TPSG   CA117267   5.280   6.940   8.016  0.0000  0.0000  0.0000
16836TPSG    Si17268   5.280   6.940   8.202  0.0000  0.0000  0.0000
16836TPSG   CA617269   5.321   6.826   7.944  0.0000  0.0000  0.0000
16836TPSG   HH617270   5.336   6.730   7.993  0.0000  0.0000  0.0000
16836TPSG   CA517271   5.344   6.833   7.805  0.0000  0.0000  0.0000
16836TPSG   HA517272   5.376   6.746   7.750  0.0000  0.0000  0.0000
16836TPSG   CA417273   5.321   6.954   7.737  0.0000  0.0000  0.0000
16836TPSG   HA417274   5.340   6.960   7.630  0.0000  0.0000  0.0000
16836TPSG   CA317275   5.274   7.066   7.807  0.0000  0.0000  0.0000
16836TPSG   HA317276   5.257   7.159   7.753  0.0000  0.0000  0.0000
16836TPSG    O117277   5.396   6.940   8.086  0.0000  0.0000  0.0000
16836TPSG    H617278   5.396   6.940   7.988  0.0000  0.0000  0.0000
16837TPSG   HA217279   4.949   7.773   1.573  0.0000  0.0000  0.0000
16837TPSG   CA217280   4.976   7.865   1.624  0.0000  0.0000  0.0000
16837TPSG   CA117281   5.001   7.984   1.554  0.0000  0.0000  0.0000
16837TPSG    Si17282   5.001   7.984   1.368  0.0000  0.0000  0.0000
16837TPSG   CA617283   5.042   8.098   1.626  0.0000  0.0000  0.0000
16837TPSG   HH617284   5.057   8.194   1.577  0.0000  0.0000  0.0000
16837TPSG   CA517285   5.065   8.091   1.765  0.0000  0.0000  0.0000
16837TPSG   HA517286   5.097   8.178   1.820  0.0000  0.0000  0.0000
16837TPSG   CA417287   5.042   7.970   1.833  0.0000  0.0000  0.0000
16837TPSG   HA417288   5.061   7.964   1.940  0.0000  0.0000  0.0000
16837TPSG   CA317289   4.995   7.858   1.763  0.0000  0.0000  0.0000
16837TPSG   HA317290   4.978   7.765   1.817  0.0000  0.0000  0.0000
16837TPSG    O117291   5.117   7.984   1.484  0.0000  0.0000  0.0000
16837TPSG    H617292   5.117   7.984   1.582  0.0000  0.0000  0.0000
16838TPSG   HA217293   8.695   3.454   1.665  0.0000  0.0000  0.0000
16838TPSG   CA217294   8.722   3.546   1.716  0.0000  0.0000  0.0000
16838TPSG   CA117295   8.747   3.665   1.646  0.0000  0.0000  0.0000
16838TPSG    Si17296   8.747   3.665   1.460  0.0000  0.0000  0.0000
16838TPSG   CA617297   8.788   3.779   1.718  0.0000  0.0000  0.0000
16838TPSG   HH617298   8.803   3.875   1.669  0.0000  0.0000  0.0000
16838TPSG   CA517299   8.811   3.772   1.857  0.0000  0.0000  0.0000
16838TPSG   HA517300   8.843   3.859   1.912  0.0000  0.0000  0.0000
16838TPSG   CA417301   8.788   3.651   1.925  0.0000  0.0000  0.0000
16838TPSG   HA417302   8.807   3.645   2.032  0.0000  0.0000  0.0000
16838TPSG   CA317303   8.741   3.539   1.855  0.0000  0.0000  0.0000
16838TPSG   HA317304   8.724   3.446   1.909  0.0000  0.0000  0.0000
16838TPSG    O117305   8.863   3.665   1.576  0.0000  0.0000  0.0000
16838TPSG    H617306   8.863   3.665   1.674  0.0000  0.0000  0.0000
16839TPSG   HA217307   1.399   8.699   8.066  0.0000  0.0000  0.0000
16839TPSG   CA217308   1.426   8.607   8.015  0.0000  0.0000  0.0000
16839TPSG   CA117309   1.451   8.488   8.085  0.0000  0.0000  0.0000
16839TPSG    Si17310   1.451   8.488   8.271  0.0000  0.0000  0.0000
16839TPSG   CA617311   1.492   8.374   8.013  0.0000  0.0000  0.0000
16839TPSG   HH617312   1.507   8.278   8.062  0.0000  0.0000  0.0000
16839TPSG   CA517313   1.515   8.381   7.874  0.0000  0.0000  0.0000
16839TPSG   HA517314   1.547   8.294   7.819  0.0000  0.0000  0.0000
16839TPSG   CA417315   1.492   8.502   7.806  0.0000  0.0000  0.0000
16839TPSG   HA417316   1.511   8.508   7.699  0.0000  0.0000  0.0000
16839TPSG   CA317317   1.445   8.614   7.876  0.0000  0.0000  0.0000
16839TPSG   HA317318   1.428   8.707   7.822  0.0000  0.0000  0.0000
16839TPSG    O117319   1.567   8.488   8.155  0.0000  0.0000  0.0000
16839TPSG    H617320   1.567   8.488   8.057  0.0000  0.0000  0.0000
16840TPSG   HA217321   4.212   2.468   8.058  0.0000  0.0000  0.0000
16840TPSG   CA217322   4.239   2.376   8.007  0.0000  0.0000  0.0000
16840TPSG   CA117323   4.264   2.257   8.077  0.0000  0.0000  0.0000
16840TPSG    Si17324   4.264   2.257   8.263  0.0000  0.0000  0.0000
16840TPSG   CA617325   4.305   2.143   8.005  0.0000  0.0000  0.0000
16840TPSG   HH617326   4.320   2.047   8.054  0.0000  0.0000  0.0000
16840TPSG   CA517327   4.328   2.150   7.866  0.0000  0.0000  0.0000
16840TPSG   HA517328   4.360   2.063   7.811  0.0000  0.0000  0.0000
16840TPSG   CA417329   4.305   2.271   7.798  0.0000  0.0000  0.0000
16840TPSG   HA417330   4.324   2.277   7.691  0.0000  0.0000  0.0000
16840TPSG   CA317331   4.258   2.383   7.868  0.0000  0.0000  0.0000
16840TPSG   HA317332   4.241   2.476   7.814  0.0000  0.0000  0.0000
16840TPSG    O117333   4.380   2.257   8.147  0.0000  0.0000  0.0000
16840TPSG    H617334   4.380   2.257   8.049  0.0000  0.0000  0.0000
16841TPSG   HA217335   1.128   1.246   1.614  0.0000  0.0000  0.0000
16841TPSG   CA217336   1.155   1.338   1.665  0.0000  0.0000  0.0000
16841TPSG   CA117337   1.180   1.457   1.595  0.0000  0.0000  0.0000
16841TPSG    Si17338   1.180   1.457   1.409  0.0000  0.0000  0.0000
16841TPSG   CA617339   1.221   1.571   1.667  0.0000  0.0000  0.0000
16841TPSG   HH617340   1.236   1.667   1.618  0.0000  0.0000  0.0000
16841TPSG   CA517341   1.244   1.564   1.806  0.0000  0.0000  0.0000
16841TPSG   HA517342   1.276   1.651   1.861  0.0000  0.0000  0.0000
16841TPSG   CA417343   1.221   1.443   1.874  0.0000  0.0000  0.0000
16841TPSG   HA417344   1.240   1.437   1.981  0.0000  0.0000  0.0000
16841TPSG   CA317345   1.174   1.331   1.804  0.0000  0.0000  0.0000
16841TPSG   HA317346   1.157   1.238   1.858  0.0000  0.0000  0.0000
16841TPSG    O117347   1.296   1.457   1.525  0.0000  0.0000  0.0000
16841TPSG    H617348   1.296   1.457   1.623  0.0000  0.0000  0.0000
16842TPSG   HA217349   5.890   9.400   8.112  0.0000  0.0000  0.0000
16842TPSG   CA217350   5.917   9.308   8.061  0.0000  0.0000  0.0000
16842TPSG   CA117351   5.942   9.189   8.131  0.0000  0.0000  0.0000
16842TPSG    Si17352   5.942   9.189   8.317  0.0000  0.0000  0.0000
16842TPSG   CA617353   5.983   9.075   8.059  0.0000  0.0000  0.0000
16842TPSG   HH617354   5.998   8.979   8.108  0.0000  0.0000  0.0000
16842TPSG   CA517355   6.006   9.082   7.920  0.0000  0.0000  0.0000
16842TPSG   HA517356   6.038   8.995   7.865  0.0000  0.0000  0.0000
16842TPSG   CA417357   5.983   9.203   7.852  0.0000  0.0000  0.0000
16842TPSG   HA417358   6.002   9.209   7.745  0.0000  0.0000  0.0000
16842TPSG   CA317359   5.936   9.315   7.922  0.0000  0.0000  0.0000
16842TPSG   HA317360   5.919   9.408   7.868  0.0000  0.0000  0.0000
16842TPSG    O117361   6.058   9.189   8.201  0.0000  0.0000  0.0000
16842TPSG    H617362   6.058   9.189   8.103  0.0000  0.0000  0.0000
16843TPSG   HA217363   3.718   3.961   1.536  0.0000  0.0000  0.0000
16843TPSG   CA217364   3.652   4.029   1.587  0.0000  0.0000  0.0000
16843TPSG   CA117365   3.561   4.111   1.517  0.0000  0.0000  0.0000
16843TPSG    Si17366   3.561   4.111   1.331  0.0000  0.0000  0.0000
16843TPSG   CA617367   3.483   4.204   1.589  0.0000  0.0000  0.0000
16843TPSG   HH617368   3.408   4.265   1.540  0.0000  0.0000  0.0000
16843TPSG   CA517369   3.500   4.219   1.728  0.0000  0.0000  0.0000
16843TPSG   HA517370   3.441   4.291   1.783  0.0000  0.0000  0.0000
16843TPSG   CA417371   3.593   4.140   1.796  0.0000  0.0000  0.0000
16843TPSG   HA417372   3.608   4.153   1.903  0.0000  0.0000  0.0000
16843TPSG   CA317373   3.667   4.043   1.726  0.0000  0.0000  0.0000
16843TPSG   HA317374   3.739   3.981   1.780  0.0000  0.0000  0.0000
16843TPSG    O117375   3.619   4.211   1.447  0.0000  0.0000  0.0000
16843TPSG    H617376   3.619   4.211   1.545  0.0000  0.0000  0.0000
16844TPSG   HA217377   7.831   1.777   8.012  0.0000  0.0000  0.0000
16844TPSG   CA217378   7.858   1.685   7.961  0.0000  0.0000  0.0000
16844TPSG   CA117379   7.883   1.566   8.031  0.0000  0.0000  0.0000
16844TPSG    Si17380   7.883   1.566   8.217  0.0000  0.0000  0.0000
16844TPSG   CA617381   7.924   1.452   7.959  0.0000  0.0000  0.0000
16844TPSG   HH617382   7.939   1.356   8.008  0.0000  0.0000  0.0000
16844TPSG   CA517383   7.947   1.459   7.820  0.0000  0.0000  0.0000
16844TPSG   HA517384   7.979   1.372   7.765  0.0000  0.0000  0.0000
16844TPSG   CA417385   7.924   1.580   7.752  0.0000  0.0000  0.0000
16844TPSG   HA417386   7.943   1.586   7.645  0.0000  0.0000  0.0000
16844TPSG   CA317387   7.877   1.692   7.822  0.0000  0.0000  0.0000
16844TPSG   HA317388   7.860   1.785   7.768  0.0000  0.0000  0.0000
16844TPSG    O117389   7.999   1.566   8.101  0.0000  0.0000  0.0000
16844TPSG    H617390   7.999   1.566   8.003  0.0000  0.0000  0.0000
16845TPSG   HA217391   8.291   0.594   1.498  0.0000  0.0000  0.0000
16845TPSG   CA217392   8.318   0.686   1.549  0.0000  0.0000  0.0000
16845TPSG   CA117393   8.343   0.805   1.479  0.0000  0.0000  0.0000
16845TPSG    Si17394   8.343   0.805   1.293  0.0000  0.0000  0.0000
16845TPSG   CA617395   8.384   0.919   1.551  0.0000  0.0000  0.0000
16845TPSG   HH617396   8.399   1.015   1.502  0.0000  0.0000  0.0000
16845TPSG   CA517397   8.407   0.912   1.690  0.0000  0.0000  0.0000
16845TPSG   HA517398   8.439   0.999   1.745  0.0000  0.0000  0.0000
16845TPSG   CA417399   8.384   0.791   1.758  0.0000  0.0000  0.0000
16845TPSG   HA417400   8.403   0.785   1.865  0.0000  0.0000  0.0000
16845TPSG   CA317401   8.337   0.679   1.688  0.0000  0.0000  0.0000
16845TPSG   HA317402   8.320   0.586   1.742  0.0000  0.0000  0.0000
16845TPSG    O117403   8.459   0.805   1.409  0.0000  0.0000  0.0000
16845TPSG    H617404   8.459   0.805   1.507  0.0000  0.0000  0.0000
16846TPSG   HA217405   5.961   0.340   1.477  0.0000  0.0000  0.0000
16846TPSG   CA217406   5.988   0.432   1.528  0.0000  0.0000  0.0000
16846TPSG   CA117407   6.013   0.551   1.458  0.0000  0.0000  0.0000
16846TPSG    Si17408   6.013   0.551   1.272  0.0000  0.0000  0.0000
16846TPSG   CA617409   6.054   0.665   1.530  0.0000  0.0000  0.0000
16846TPSG   HH617410   6.069   0.761   1.481  0.0000  0.0000  0.0000
16846TPSG   CA517411   6.077   0.658   1.669  0.0000  0.0000  0.0000
16846TPSG   HA517412   6.109   0.745   1.724  0.0000  0.0000  0.0000
16846TPSG   CA417413   6.054   0.537   1.737  0.0000  0.0000  0.0000
16846TPSG   HA417414   6.073   0.531   1.844  0.0000  0.0000  0.0000
16846TPSG   CA317415   6.007   0.425   1.667  0.0000  0.0000  0.0000
16846TPSG   HA317416   5.990   0.332   1.721  0.0000  0.0000  0.0000
16846TPSG    O117417   6.129   0.551   1.388  0.0000  0.0000  0.0000
16846TPSG    H617418   6.129   0.551   1.486  0.0000  0.0000  0.0000
16847TPSG   HA217419   8.612   5.428   8.001  0.0000  0.0000  0.0000
16847TPSG   CA217420   8.639   5.336   7.950  0.0000  0.0000  0.0000
16847TPSG   CA117421   8.664   5.217   8.020  0.0000  0.0000  0.0000
16847TPSG    Si17422   8.664   5.217   8.206  0.0000  0.0000  0.0000
16847TPSG   CA617423   8.705   5.103   7.948  0.0000  0.0000  0.0000
16847TPSG   HH617424   8.720   5.007   7.997  0.0000  0.0000  0.0000
16847TPSG   CA517425   8.728   5.110   7.809  0.0000  0.0000  0.0000
16847TPSG   HA517426   8.760   5.023   7.754  0.0000  0.0000  0.0000
16847TPSG   CA417427   8.705   5.231   7.741  0.0000  0.0000  0.0000
16847TPSG   HA417428   8.724   5.237   7.634  0.0000  0.0000  0.0000
16847TPSG   CA317429   8.658   5.343   7.811  0.0000  0.0000  0.0000
16847TPSG   HA317430   8.641   5.436   7.757  0.0000  0.0000  0.0000
16847TPSG    O117431   8.780   5.217   8.090  0.0000  0.0000  0.0000
16847TPSG    H617432   8.780   5.217   7.992  0.0000  0.0000  0.0000
16848TPSG   HA217433   7.179   1.587   7.946  0.0000  0.0000  0.0000
16848TPSG   CA217434   7.206   1.495   7.895  0.0000  0.0000  0.0000
16848TPSG   CA117435   7.231   1.376   7.965  0.0000  0.0000  0.0000
16848TPSG    Si17436   7.231   1.376   8.151  0.0000  0.0000  0.0000
16848TPSG   CA617437   7.272   1.262   7.893  0.0000  0.0000  0.0000
16848TPSG   HH617438   7.287   1.166   7.942  0.0000  0.0000  0.0000
16848TPSG   CA517439   7.295   1.269   7.754  0.0000  0.0000  0.0000
16848TPSG   HA517440   7.327   1.182   7.699  0.0000  0.0000  0.0000
16848TPSG   CA417441   7.272   1.390   7.686  0.0000  0.0000  0.0000
16848TPSG   HA417442   7.291   1.396   7.579  0.0000  0.0000  0.0000
16848TPSG   CA317443   7.225   1.502   7.756  0.0000  0.0000  0.0000
16848TPSG   HA317444   7.208   1.595   7.702  0.0000  0.0000  0.0000
16848TPSG    O117445   7.347   1.376   8.035  0.0000  0.0000  0.0000
16848TPSG    H617446   7.347   1.376   7.937  0.0000  0.0000  0.0000
16849TPSG   HA217447   5.679   6.621   1.659  0.0000  0.0000  0.0000
16849TPSG   CA217448   5.706   6.713   1.710  0.0000  0.0000  0.0000
16849TPSG   CA117449   5.731   6.832   1.640  0.0000  0.0000  0.0000
16849TPSG    Si17450   5.731   6.832   1.454  0.0000  0.0000  0.0000
16849TPSG   CA617451   5.772   6.946   1.712  0.0000  0.0000  0.0000
16849TPSG   HH617452   5.787   7.042   1.663  0.0000  0.0000  0.0000
16849TPSG   CA517453   5.795   6.939   1.851  0.0000  0.0000  0.0000
16849TPSG   HA517454   5.827   7.026   1.906  0.0000  0.0000  0.0000
16849TPSG   CA417455   5.772   6.818   1.919  0.0000  0.0000  0.0000
16849TPSG   HA417456   5.791   6.812   2.026  0.0000  0.0000  0.0000
16849TPSG   CA317457   5.725   6.706   1.849  0.0000  0.0000  0.0000
16849TPSG   HA317458   5.708   6.613   1.903  0.0000  0.0000  0.0000
16849TPSG    O117459   5.847   6.832   1.570  0.0000  0.0000  0.0000
16849TPSG    H617460   5.847   6.832   1.668  0.0000  0.0000  0.0000
16850TPSG   HA217461   1.436   8.303   1.632  0.0000  0.0000  0.0000
16850TPSG   CA217462   1.463   8.395   1.683  0.0000  0.0000  0.0000
16850TPSG   CA117463   1.488   8.514   1.613  0.0000  0.0000  0.0000
16850TPSG    Si17464   1.488   8.514   1.427  0.0000  0.0000  0.0000
16850TPSG   CA617465   1.529   8.628   1.685  0.0000  0.0000  0.0000
16850TPSG   HH617466   1.544   8.724   1.636  0.0000  0.0000  0.0000
16850TPSG   CA517467   1.552   8.621   1.824  0.0000  0.0000  0.0000
16850TPSG   HA517468   1.584   8.708   1.879  0.0000  0.0000  0.0000
16850TPSG   CA417469   1.529   8.500   1.892  0.0000  0.0000  0.0000
16850TPSG   HA417470   1.548   8.494   1.999  0.0000  0.0000  0.0000
16850TPSG   CA317471   1.482   8.388   1.822  0.0000  0.0000  0.0000
16850TPSG   HA317472   1.465   8.295   1.876  0.0000  0.0000  0.0000
16850TPSG    O117473   1.604   8.514   1.543  0.0000  0.0000  0.0000
16850TPSG    H617474   1.604   8.514   1.641  0.0000  0.0000  0.0000
16851TPSG   HA217475   6.817   0.761   1.615  0.0000  0.0000  0.0000
16851TPSG   CA217476   6.844   0.853   1.666  0.0000  0.0000  0.0000
16851TPSG   CA117477   6.869   0.972   1.596  0.0000  0.0000  0.0000
16851TPSG    Si17478   6.869   0.972   1.410  0.0000  0.0000  0.0000
16851TPSG   CA617479   6.910   1.086   1.668  0.0000  0.0000  0.0000
16851TPSG   HH617480   6.925   1.182   1.619  0.0000  0.0000  0.0000
16851TPSG   CA517481   6.933   1.079   1.807  0.0000  0.0000  0.0000
16851TPSG   HA517482   6.965   1.166   1.862  0.0000  0.0000  0.0000
16851TPSG   CA417483   6.910   0.958   1.875  0.0000  0.0000  0.0000
16851TPSG   HA417484   6.929   0.952   1.982  0.0000  0.0000  0.0000
16851TPSG   CA317485   6.863   0.846   1.805  0.0000  0.0000  0.0000
16851TPSG   HA317486   6.846   0.753   1.859  0.0000  0.0000  0.0000
16851TPSG    O117487   6.985   0.972   1.526  0.0000  0.0000  0.0000
16851TPSG    H617488   6.985   0.972   1.624  0.0000  0.0000  0.0000
16852TPSG   HA217489   7.794   4.410   7.997  0.0000  0.0000  0.0000
16852TPSG   CA217490   7.821   4.318   7.946  0.0000  0.0000  0.0000
16852TPSG   CA117491   7.846   4.199   8.016  0.0000  0.0000  0.0000
16852TPSG    Si17492   7.846   4.199   8.202  0.0000  0.0000  0.0000
16852TPSG   CA617493   7.887   4.085   7.944  0.0000  0.0000  0.0000
16852TPSG   HH617494   7.902   3.989   7.993  0.0000  0.0000  0.0000
16852TPSG   CA517495   7.910   4.092   7.805  0.0000  0.0000  0.0000
16852TPSG   HA517496   7.942   4.005   7.750  0.0000  0.0000  0.0000
16852TPSG   CA417497   7.887   4.213   7.737  0.0000  0.0000  0.0000
16852TPSG   HA417498   7.906   4.219   7.630  0.0000  0.0000  0.0000
16852TPSG   CA317499   7.840   4.325   7.807  0.0000  0.0000  0.0000
16852TPSG   HA317500   7.823   4.418   7.753  0.0000  0.0000  0.0000
16852TPSG    O117501   7.962   4.199   8.086  0.0000  0.0000  0.0000
16852TPSG    H617502   7.962   4.199   7.988  0.0000  0.0000  0.0000
16853TPSG   HA217503   0.902   6.950   7.976  0.0000  0.0000  0.0000
16853TPSG   CA217504   0.929   6.858   7.925  0.0000  0.0000  0.0000
16853TPSG   CA117505   0.954   6.739   7.995  0.0000  0.0000  0.0000
16853TPSG    Si17506   0.954   6.739   8.181  0.0000  0.0000  0.0000
16853TPSG   CA617507   0.995   6.625   7.923  0.0000  0.0000  0.0000
16853TPSG   HH617508   1.010   6.529   7.972  0.0000  0.0000  0.0000
16853TPSG   CA517509   1.018   6.632   7.784  0.0000  0.0000  0.0000
16853TPSG   HA517510   1.050   6.545   7.729  0.0000  0.0000  0.0000
16853TPSG   CA417511   0.995   6.753   7.716  0.0000  0.0000  0.0000
16853TPSG   HA417512   1.014   6.759   7.609  0.0000  0.0000  0.0000
16853TPSG   CA317513   0.948   6.865   7.786  0.0000  0.0000  0.0000
16853TPSG   HA317514   0.931   6.958   7.732  0.0000  0.0000  0.0000
16853TPSG    O117515   1.070   6.739   8.065  0.0000  0.0000  0.0000
16853TPSG    H617516   1.070   6.739   7.967  0.0000  0.0000  0.0000
16854TPSG   HA217517   6.826   6.697   8.069  0.0000  0.0000  0.0000
16854TPSG   CA217518   6.853   6.605   8.018  0.0000  0.0000  0.0000
16854TPSG   CA117519   6.878   6.486   8.088  0.0000  0.0000  0.0000
16854TPSG    Si17520   6.878   6.486   8.274  0.0000  0.0000  0.0000
16854TPSG   CA617521   6.919   6.372   8.016  0.0000  0.0000  0.0000
16854TPSG   HH617522   6.934   6.276   8.065  0.0000  0.0000  0.0000
16854TPSG   CA517523   6.942   6.379   7.877  0.0000  0.0000  0.0000
16854TPSG   HA517524   6.974   6.292   7.822  0.0000  0.0000  0.0000
16854TPSG   CA417525   6.919   6.500   7.809  0.0000  0.0000  0.0000
16854TPSG   HA417526   6.938   6.506   7.702  0.0000  0.0000  0.0000
16854TPSG   CA317527   6.872   6.612   7.879  0.0000  0.0000  0.0000
16854TPSG   HA317528   6.855   6.705   7.825  0.0000  0.0000  0.0000
16854TPSG    O117529   6.994   6.486   8.158  0.0000  0.0000  0.0000
16854TPSG    H617530   6.994   6.486   8.060  0.0000  0.0000  0.0000
16855TPSG   HA217531   5.578   5.613   7.984  0.0000  0.0000  0.0000
16855TPSG   CA217532   5.605   5.521   7.933  0.0000  0.0000  0.0000
16855TPSG   CA117533   5.630   5.402   8.003  0.0000  0.0000  0.0000
16855TPSG    Si17534   5.630   5.402   8.189  0.0000  0.0000  0.0000
16855TPSG   CA617535   5.671   5.288   7.931  0.0000  0.0000  0.0000
16855TPSG   HH617536   5.686   5.192   7.980  0.0000  0.0000  0.0000
16855TPSG   CA517537   5.694   5.295   7.792  0.0000  0.0000  0.0000
16855TPSG   HA517538   5.726   5.208   7.737  0.0000  0.0000  0.0000
16855TPSG   CA417539   5.671   5.416   7.724  0.0000  0.0000  0.0000
16855TPSG   HA417540   5.690   5.422   7.617  0.0000  0.0000  0.0000
16855TPSG   CA317541   5.624   5.528   7.794  0.0000  0.0000  0.0000
16855TPSG   HA317542   5.607   5.621   7.740  0.0000  0.0000  0.0000
16855TPSG    O117543   5.746   5.402   8.073  0.0000  0.0000  0.0000
16855TPSG    H617544   5.746   5.402   7.975  0.0000  0.0000  0.0000
16856TPSG   HA217545   3.269   1.770   1.614  0.0000  0.0000  0.0000
16856TPSG   CA217546   3.296   1.862   1.665  0.0000  0.0000  0.0000
16856TPSG   CA117547   3.321   1.981   1.595  0.0000  0.0000  0.0000
16856TPSG    Si17548   3.321   1.981   1.409  0.0000  0.0000  0.0000
16856TPSG   CA617549   3.362   2.095   1.667  0.0000  0.0000  0.0000
16856TPSG   HH617550   3.377   2.191   1.618  0.0000  0.0000  0.0000
16856TPSG   CA517551   3.385   2.088   1.806  0.0000  0.0000  0.0000
16856TPSG   HA517552   3.417   2.175   1.861  0.0000  0.0000  0.0000
16856TPSG   CA417553   3.362   1.967   1.874  0.0000  0.0000  0.0000
16856TPSG   HA417554   3.381   1.961   1.981  0.0000  0.0000  0.0000
16856TPSG   CA317555   3.315   1.855   1.804  0.0000  0.0000  0.0000
16856TPSG   HA317556   3.298   1.762   1.858  0.0000  0.0000  0.0000
16856TPSG    O117557   3.437   1.981   1.525  0.0000  0.0000  0.0000
16856TPSG    H617558   3.437   1.981   1.623  0.0000  0.0000  0.0000
16857TPSG   HA217559   4.821   7.988   1.552  0.0000  0.0000  0.0000
16857TPSG   CA217560   4.794   7.896   1.603  0.0000  0.0000  0.0000
16857TPSG   CA117561   4.769   7.777   1.533  0.0000  0.0000  0.0000
16857TPSG    Si17562   4.769   7.777   1.347  0.0000  0.0000  0.0000
16857TPSG   CA617563   4.728   7.663   1.605  0.0000  0.0000  0.0000
16857TPSG   HH617564   4.713   7.567   1.556  0.0000  0.0000  0.0000
16857TPSG   CA517565   4.705   7.670   1.744  0.0000  0.0000  0.0000
16857TPSG   HA517566   4.673   7.583   1.799  0.0000  0.0000  0.0000
16857TPSG   CA417567   4.728   7.791   1.812  0.0000  0.0000  0.0000
16857TPSG   HA417568   4.709   7.797   1.919  0.0000  0.0000  0.0000
16857TPSG   CA317569   4.775   7.903   1.742  0.0000  0.0000  0.0000
16857TPSG   HA317570   4.792   7.996   1.796  0.0000  0.0000  0.0000
16857TPSG    O117571   4.653   7.777   1.463  0.0000  0.0000  0.0000
16857TPSG    H617572   4.653   7.777   1.561  0.0000  0.0000  0.0000
16858TPSG   HA217573   6.032   6.646   8.036  0.0000  0.0000  0.0000
16858TPSG   CA217574   5.966   6.578   7.985  0.0000  0.0000  0.0000
16858TPSG   CA117575   5.875   6.496   8.055  0.0000  0.0000  0.0000
16858TPSG    Si17576   5.875   6.496   8.241  0.0000  0.0000  0.0000
16858TPSG   CA617577   5.797   6.403   7.983  0.0000  0.0000  0.0000
16858TPSG   HH617578   5.722   6.342   8.032  0.0000  0.0000  0.0000
16858TPSG   CA517579   5.814   6.388   7.844  0.0000  0.0000  0.0000
16858TPSG   HA517580   5.755   6.316   7.789  0.0000  0.0000  0.0000
16858TPSG   CA417581   5.907   6.467   7.776  0.0000  0.0000  0.0000
16858TPSG   HA417582   5.922   6.454   7.669  0.0000  0.0000  0.0000
16858TPSG   CA317583   5.981   6.564   7.846  0.0000  0.0000  0.0000
16858TPSG   HA317584   6.053   6.626   7.792  0.0000  0.0000  0.0000
16858TPSG    O117585   5.933   6.396   8.125  0.0000  0.0000  0.0000
16858TPSG    H617586   5.933   6.396   8.027  0.0000  0.0000  0.0000
16859TPSG   HA217587   8.821   4.703   8.033  0.0000  0.0000  0.0000
16859TPSG   CA217588   8.848   4.611   7.982  0.0000  0.0000  0.0000
16859TPSG   CA117589   8.873   4.492   8.052  0.0000  0.0000  0.0000
16859TPSG    Si17590   8.873   4.492   8.238  0.0000  0.0000  0.0000
16859TPSG   CA617591   8.914   4.378   7.980  0.0000  0.0000  0.0000
16859TPSG   HH617592   8.929   4.282   8.029  0.0000  0.0000  0.0000
16859TPSG   CA517593   8.937   4.385   7.841  0.0000  0.0000  0.0000
16859TPSG   HA517594   8.969   4.298   7.786  0.0000  0.0000  0.0000
16859TPSG   CA417595   8.914   4.506   7.773  0.0000  0.0000  0.0000
16859TPSG   HA417596   8.933   4.512   7.666  0.0000  0.0000  0.0000
16859TPSG   CA317597   8.867   4.618   7.843  0.0000  0.0000  0.0000
16859TPSG   HA317598   8.850   4.711   7.789  0.0000  0.0000  0.0000
16859TPSG    O117599   8.989   4.492   8.122  0.0000  0.0000  0.0000
16859TPSG    H617600   8.989   4.492   8.024  0.0000  0.0000  0.0000
16860TPSG   HA217601   7.523   3.008   1.492  0.0000  0.0000  0.0000
16860TPSG   CA217602   7.550   3.100   1.543  0.0000  0.0000  0.0000
16860TPSG   CA117603   7.575   3.219   1.473  0.0000  0.0000  0.0000
16860TPSG    Si17604   7.575   3.219   1.287  0.0000  0.0000  0.0000
16860TPSG   CA617605   7.616   3.333   1.545  0.0000  0.0000  0.0000
16860TPSG   HH617606   7.631   3.429   1.496  0.0000  0.0000  0.0000
16860TPSG   CA517607   7.639   3.326   1.684  0.0000  0.0000  0.0000
16860TPSG   HA517608   7.671   3.413   1.739  0.0000  0.0000  0.0000
16860TPSG   CA417609   7.616   3.205   1.752  0.0000  0.0000  0.0000
16860TPSG   HA417610   7.635   3.199   1.859  0.0000  0.0000  0.0000
16860TPSG   CA317611   7.569   3.093   1.682  0.0000  0.0000  0.0000
16860TPSG   HA317612   7.552   3.000   1.736  0.0000  0.0000  0.0000
16860TPSG    O117613   7.691   3.219   1.403  0.0000  0.0000  0.0000
16860TPSG    H617614   7.691   3.219   1.501  0.0000  0.0000  0.0000
16861TPSG   HA217615   4.375   0.953   7.964  0.0000  0.0000  0.0000
16861TPSG   CA217616   4.402   0.861   7.913  0.0000  0.0000  0.0000
16861TPSG   CA117617   4.427   0.742   7.983  0.0000  0.0000  0.0000
16861TPSG    Si17618   4.427   0.742   8.169  0.0000  0.0000  0.0000
16861TPSG   CA617619   4.468   0.628   7.911  0.0000  0.0000  0.0000
16861TPSG   HH617620   4.483   0.532   7.960  0.0000  0.0000  0.0000
16861TPSG   CA517621   4.491   0.635   7.772  0.0000  0.0000  0.0000
16861TPSG   HA517622   4.523   0.548   7.717  0.0000  0.0000  0.0000
16861TPSG   CA417623   4.468   0.756   7.704  0.0000  0.0000  0.0000
16861TPSG   HA417624   4.487   0.762   7.597  0.0000  0.0000  0.0000
16861TPSG   CA317625   4.421   0.868   7.774  0.0000  0.0000  0.0000
16861TPSG   HA317626   4.404   0.961   7.720  0.0000  0.0000  0.0000
16861TPSG    O117627   4.543   0.742   8.053  0.0000  0.0000  0.0000
16861TPSG    H617628   4.543   0.742   7.955  0.0000  0.0000  0.0000
16862TPSG   HA217629   3.923   8.894   1.615  0.0000  0.0000  0.0000
16862TPSG   CA217630   3.950   8.986   1.666  0.0000  0.0000  0.0000
16862TPSG   CA117631   3.975   9.105   1.596  0.0000  0.0000  0.0000
16862TPSG    Si17632   3.975   9.105   1.410  0.0000  0.0000  0.0000
16862TPSG   CA617633   4.016   9.219   1.668  0.0000  0.0000  0.0000
16862TPSG   HH617634   4.031   9.315   1.619  0.0000  0.0000  0.0000
16862TPSG   CA517635   4.039   9.212   1.807  0.0000  0.0000  0.0000
16862TPSG   HA517636   4.071   9.299   1.862  0.0000  0.0000  0.0000
16862TPSG   CA417637   4.016   9.091   1.875  0.0000  0.0000  0.0000
16862TPSG   HA417638   4.035   9.085   1.982  0.0000  0.0000  0.0000
16862TPSG   CA317639   3.969   8.979   1.805  0.0000  0.0000  0.0000
16862TPSG   HA317640   3.952   8.886   1.859  0.0000  0.0000  0.0000
16862TPSG    O117641   4.091   9.105   1.526  0.0000  0.0000  0.0000
16862TPSG    H617642   4.091   9.105   1.624  0.0000  0.0000  0.0000
16863TPSG   HA217643   3.429   1.054   1.649  0.0000  0.0000  0.0000
16863TPSG   CA217644   3.456   1.146   1.700  0.0000  0.0000  0.0000
16863TPSG   CA117645   3.481   1.265   1.630  0.0000  0.0000  0.0000
16863TPSG    Si17646   3.481   1.265   1.444  0.0000  0.0000  0.0000
16863TPSG   CA617647   3.522   1.379   1.702  0.0000  0.0000  0.0000
16863TPSG   HH617648   3.537   1.475   1.653  0.0000  0.0000  0.0000
16863TPSG   CA517649   3.545   1.372   1.841  0.0000  0.0000  0.0000
16863TPSG   HA517650   3.577   1.459   1.896  0.0000  0.0000  0.0000
16863TPSG   CA417651   3.522   1.251   1.909  0.0000  0.0000  0.0000
16863TPSG   HA417652   3.541   1.245   2.016  0.0000  0.0000  0.0000
16863TPSG   CA317653   3.475   1.139   1.839  0.0000  0.0000  0.0000
16863TPSG   HA317654   3.458   1.046   1.893  0.0000  0.0000  0.0000
16863TPSG    O117655   3.597   1.265   1.560  0.0000  0.0000  0.0000
16863TPSG    H617656   3.597   1.265   1.658  0.0000  0.0000  0.0000
16864TPSG   HA217657   2.128   7.287   1.584  0.0000  0.0000  0.0000
16864TPSG   CA217658   2.155   7.379   1.635  0.0000  0.0000  0.0000
16864TPSG   CA117659   2.180   7.498   1.565  0.0000  0.0000  0.0000
16864TPSG    Si17660   2.180   7.498   1.379  0.0000  0.0000  0.0000
16864TPSG   CA617661   2.221   7.612   1.637  0.0000  0.0000  0.0000
16864TPSG   HH617662   2.236   7.708   1.588  0.0000  0.0000  0.0000
16864TPSG   CA517663   2.244   7.605   1.776  0.0000  0.0000  0.0000
16864TPSG   HA517664   2.276   7.692   1.831  0.0000  0.0000  0.0000
16864TPSG   CA417665   2.221   7.484   1.844  0.0000  0.0000  0.0000
16864TPSG   HA417666   2.240   7.478   1.951  0.0000  0.0000  0.0000
16864TPSG   CA317667   2.174   7.372   1.774  0.0000  0.0000  0.0000
16864TPSG   HA317668   2.157   7.279   1.828  0.0000  0.0000  0.0000
16864TPSG    O117669   2.296   7.498   1.495  0.0000  0.0000  0.0000
16864TPSG    H617670   2.296   7.498   1.593  0.0000  0.0000  0.0000
16865TPSG   HA217671   3.815   2.912   7.999  0.0000  0.0000  0.0000
16865TPSG   CA217672   3.842   2.820   7.948  0.0000  0.0000  0.0000
16865TPSG   CA117673   3.867   2.701   8.018  0.0000  0.0000  0.0000
16865TPSG    Si17674   3.867   2.701   8.204  0.0000  0.0000  0.0000
16865TPSG   CA617675   3.908   2.587   7.946  0.0000  0.0000  0.0000
16865TPSG   HH617676   3.923   2.491   7.995  0.0000  0.0000  0.0000
16865TPSG   CA517677   3.931   2.594   7.807  0.0000  0.0000  0.0000
16865TPSG   HA517678   3.963   2.507   7.752  0.0000  0.0000  0.0000
16865TPSG   CA417679   3.908   2.715   7.739  0.0000  0.0000  0.0000
16865TPSG   HA417680   3.927   2.721   7.632  0.0000  0.0000  0.0000
16865TPSG   CA317681   3.861   2.827   7.809  0.0000  0.0000  0.0000
16865TPSG   HA317682   3.844   2.920   7.755  0.0000  0.0000  0.0000
16865TPSG    O117683   3.983   2.701   8.088  0.0000  0.0000  0.0000
16865TPSG    H617684   3.983   2.701   7.990  0.0000  0.0000  0.0000
16866TPSG   HA217685   3.941   8.428   8.089  0.0000  0.0000  0.0000
16866TPSG   CA217686   3.968   8.336   8.038  0.0000  0.0000  0.0000
16866TPSG   CA117687   3.993   8.217   8.108  0.0000  0.0000  0.0000
16866TPSG    Si17688   3.993   8.217   8.294  0.0000  0.0000  0.0000
16866TPSG   CA617689   4.034   8.103   8.036  0.0000  0.0000  0.0000
16866TPSG   HH617690   4.049   8.007   8.085  0.0000  0.0000  0.0000
16866TPSG   CA517691   4.057   8.110   7.897  0.0000  0.0000  0.0000
16866TPSG   HA517692   4.089   8.023   7.842  0.0000  0.0000  0.0000
16866TPSG   CA417693   4.034   8.231   7.829  0.0000  0.0000  0.0000
16866TPSG   HA417694   4.053   8.237   7.722  0.0000  0.0000  0.0000
16866TPSG   CA317695   3.987   8.343   7.899  0.0000  0.0000  0.0000
16866TPSG   HA317696   3.970   8.436   7.845  0.0000  0.0000  0.0000
16866TPSG    O117697   4.109   8.217   8.178  0.0000  0.0000  0.0000
16866TPSG    H617698   4.109   8.217   8.080  0.0000  0.0000  0.0000
16867TPSG   HA217699   1.601   6.123   1.632  0.0000  0.0000  0.0000
16867TPSG   CA217700   1.628   6.215   1.683  0.0000  0.0000  0.0000
16867TPSG   CA117701   1.653   6.334   1.613  0.0000  0.0000  0.0000
16867TPSG    Si17702   1.653   6.334   1.427  0.0000  0.0000  0.0000
16867TPSG   CA617703   1.694   6.448   1.685  0.0000  0.0000  0.0000
16867TPSG   HH617704   1.709   6.544   1.636  0.0000  0.0000  0.0000
16867TPSG   CA517705   1.717   6.441   1.824  0.0000  0.0000  0.0000
16867TPSG   HA517706   1.749   6.528   1.879  0.0000  0.0000  0.0000
16867TPSG   CA417707   1.694   6.320   1.892  0.0000  0.0000  0.0000
16867TPSG   HA417708   1.713   6.314   1.999  0.0000  0.0000  0.0000
16867TPSG   CA317709   1.647   6.208   1.822  0.0000  0.0000  0.0000
16867TPSG   HA317710   1.630   6.115   1.876  0.0000  0.0000  0.0000
16867TPSG    O117711   1.769   6.334   1.543  0.0000  0.0000  0.0000
16867TPSG    H617712   1.769   6.334   1.641  0.0000  0.0000  0.0000
16868TPSG   HA217713   2.128   7.768   8.040  0.0000  0.0000  0.0000
16868TPSG   CA217714   2.155   7.676   7.989  0.0000  0.0000  0.0000
16868TPSG   CA117715   2.180   7.557   8.059  0.0000  0.0000  0.0000
16868TPSG    Si17716   2.180   7.557   8.245  0.0000  0.0000  0.0000
16868TPSG   CA617717   2.221   7.443   7.987  0.0000  0.0000  0.0000
16868TPSG   HH617718   2.236   7.347   8.036  0.0000  0.0000  0.0000
16868TPSG   CA517719   2.244   7.450   7.848  0.0000  0.0000  0.0000
16868TPSG   HA517720   2.276   7.363   7.793  0.0000  0.0000  0.0000
16868TPSG   CA417721   2.221   7.571   7.780  0.0000  0.0000  0.0000
16868TPSG   HA417722   2.240   7.577   7.673  0.0000  0.0000  0.0000
16868TPSG   CA317723   2.174   7.683   7.850  0.0000  0.0000  0.0000
16868TPSG   HA317724   2.157   7.776   7.796  0.0000  0.0000  0.0000
16868TPSG    O117725   2.296   7.557   8.129  0.0000  0.0000  0.0000
16868TPSG    H617726   2.296   7.557   8.031  0.0000  0.0000  0.0000
16869TPSG   HA217727   0.857   4.434   1.617  0.0000  0.0000  0.0000
16869TPSG   CA217728   0.884   4.526   1.668  0.0000  0.0000  0.0000
16869TPSG   CA117729   0.909   4.645   1.598  0.0000  0.0000  0.0000
16869TPSG    Si17730   0.909   4.645   1.412  0.0000  0.0000  0.0000
16869TPSG   CA617731   0.950   4.759   1.670  0.0000  0.0000  0.0000
16869TPSG   HH617732   0.965   4.855   1.621  0.0000  0.0000  0.0000
16869TPSG   CA517733   0.973   4.752   1.809  0.0000  0.0000  0.0000
16869TPSG   HA517734   1.005   4.839   1.864  0.0000  0.0000  0.0000
16869TPSG   CA417735   0.950   4.631   1.877  0.0000  0.0000  0.0000
16869TPSG   HA417736   0.969   4.625   1.984  0.0000  0.0000  0.0000
16869TPSG   CA317737   0.903   4.519   1.807  0.0000  0.0000  0.0000
16869TPSG   HA317738   0.886   4.426   1.861  0.0000  0.0000  0.0000
16869TPSG    O117739   1.025   4.645   1.528  0.0000  0.0000  0.0000
16869TPSG    H617740   1.025   4.645   1.626  0.0000  0.0000  0.0000
16870TPSG   HA217741   3.864   4.391   1.639  0.0000  0.0000  0.0000
16870TPSG   CA217742   3.891   4.483   1.690  0.0000  0.0000  0.0000
16870TPSG   CA117743   3.916   4.602   1.620  0.0000  0.0000  0.0000
16870TPSG    Si17744   3.916   4.602   1.434  0.0000  0.0000  0.0000
16870TPSG   CA617745   3.957   4.716   1.692  0.0000  0.0000  0.0000
16870TPSG   HH617746   3.972   4.812   1.643  0.0000  0.0000  0.0000
16870TPSG   CA517747   3.980   4.709   1.831  0.0000  0.0000  0.0000
16870TPSG   HA517748   4.012   4.796   1.886  0.0000  0.0000  0.0000
16870TPSG   CA417749   3.957   4.588   1.899  0.0000  0.0000  0.0000
16870TPSG   HA417750   3.976   4.582   2.006  0.0000  0.0000  0.0000
16870TPSG   CA317751   3.910   4.476   1.829  0.0000  0.0000  0.0000
16870TPSG   HA317752   3.893   4.383   1.883  0.0000  0.0000  0.0000
16870TPSG    O117753   4.032   4.602   1.550  0.0000  0.0000  0.0000
16870TPSG    H617754   4.032   4.602   1.648  0.0000  0.0000  0.0000
16871TPSG   HA217755   2.748   3.814   8.071  0.0000  0.0000  0.0000
16871TPSG   CA217756   2.775   3.722   8.020  0.0000  0.0000  0.0000
16871TPSG   CA117757   2.800   3.603   8.090  0.0000  0.0000  0.0000
16871TPSG    Si17758   2.800   3.603   8.276  0.0000  0.0000  0.0000
16871TPSG   CA617759   2.841   3.489   8.018  0.0000  0.0000  0.0000
16871TPSG   HH617760   2.856   3.393   8.067  0.0000  0.0000  0.0000
16871TPSG   CA517761   2.864   3.496   7.879  0.0000  0.0000  0.0000
16871TPSG   HA517762   2.896   3.409   7.824  0.0000  0.0000  0.0000
16871TPSG   CA417763   2.841   3.617   7.811  0.0000  0.0000  0.0000
16871TPSG   HA417764   2.860   3.623   7.704  0.0000  0.0000  0.0000
16871TPSG   CA317765   2.794   3.729   7.881  0.0000  0.0000  0.0000
16871TPSG   HA317766   2.777   3.822   7.827  0.0000  0.0000  0.0000
16871TPSG    O117767   2.916   3.603   8.160  0.0000  0.0000  0.0000
16871TPSG    H617768   2.916   3.603   8.062  0.0000  0.0000  0.0000
16872TPSG   HA217769   3.031   7.447   1.461  0.0000  0.0000  0.0000
16872TPSG   CA217770   3.058   7.539   1.512  0.0000  0.0000  0.0000
16872TPSG   CA117771   3.083   7.658   1.442  0.0000  0.0000  0.0000
16872TPSG    Si17772   3.083   7.658   1.256  0.0000  0.0000  0.0000
16872TPSG   CA617773   3.124   7.772   1.514  0.0000  0.0000  0.0000
16872TPSG   HH617774   3.139   7.868   1.465  0.0000  0.0000  0.0000
16872TPSG   CA517775   3.147   7.765   1.653  0.0000  0.0000  0.0000
16872TPSG   HA517776   3.179   7.852   1.708  0.0000  0.0000  0.0000
16872TPSG   CA417777   3.124   7.644   1.721  0.0000  0.0000  0.0000
16872TPSG   HA417778   3.143   7.638   1.828  0.0000  0.0000  0.0000
16872TPSG   CA317779   3.077   7.532   1.651  0.0000  0.0000  0.0000
16872TPSG   HA317780   3.060   7.439   1.705  0.0000  0.0000  0.0000
16872TPSG    O117781   3.199   7.658   1.372  0.0000  0.0000  0.0000
16872TPSG    H617782   3.199   7.658   1.470  0.0000  0.0000  0.0000
16873TPSG   HA217783   4.426   0.788   1.563  0.0000  0.0000  0.0000
16873TPSG   CA217784   4.453   0.880   1.614  0.0000  0.0000  0.0000
16873TPSG   CA117785   4.478   0.999   1.544  0.0000  0.0000  0.0000
16873TPSG    Si17786   4.478   0.999   1.358  0.0000  0.0000  0.0000
16873TPSG   CA617787   4.519   1.113   1.616  0.0000  0.0000  0.0000
16873TPSG   HH617788   4.534   1.209   1.567  0.0000  0.0000  0.0000
16873TPSG   CA517789   4.542   1.106   1.755  0.0000  0.0000  0.0000
16873TPSG   HA517790   4.574   1.193   1.810  0.0000  0.0000  0.0000
16873TPSG   CA417791   4.519   0.985   1.823  0.0000  0.0000  0.0000
16873TPSG   HA417792   4.538   0.979   1.930  0.0000  0.0000  0.0000
16873TPSG   CA317793   4.472   0.873   1.753  0.0000  0.0000  0.0000
16873TPSG   HA317794   4.455   0.780   1.807  0.0000  0.0000  0.0000
16873TPSG    O117795   4.594   0.999   1.474  0.0000  0.0000  0.0000
16873TPSG    H617796   4.594   0.999   1.572  0.0000  0.0000  0.0000
16874TPSG   HA217797   2.430   1.987   1.618  0.0000  0.0000  0.0000
16874TPSG   CA217798   2.457   2.079   1.669  0.0000  0.0000  0.0000
16874TPSG   CA117799   2.482   2.198   1.599  0.0000  0.0000  0.0000
16874TPSG    Si17800   2.482   2.198   1.413  0.0000  0.0000  0.0000
16874TPSG   CA617801   2.523   2.312   1.671  0.0000  0.0000  0.0000
16874TPSG   HH617802   2.538   2.408   1.622  0.0000  0.0000  0.0000
16874TPSG   CA517803   2.546   2.305   1.810  0.0000  0.0000  0.0000
16874TPSG   HA517804   2.578   2.392   1.865  0.0000  0.0000  0.0000
16874TPSG   CA417805   2.523   2.184   1.878  0.0000  0.0000  0.0000
16874TPSG   HA417806   2.542   2.178   1.985  0.0000  0.0000  0.0000
16874TPSG   CA317807   2.476   2.072   1.808  0.0000  0.0000  0.0000
16874TPSG   HA317808   2.459   1.979   1.862  0.0000  0.0000  0.0000
16874TPSG    O117809   2.598   2.198   1.529  0.0000  0.0000  0.0000
16874TPSG    H617810   2.598   2.198   1.627  0.0000  0.0000  0.0000
16875TPSG   HA217811   9.065   7.473   7.966  0.0000  0.0000  0.0000
16875TPSG   CA217812   9.092   7.381   7.915  0.0000  0.0000  0.0000
16875TPSG   CA117813   9.117   7.262   7.985  0.0000  0.0000  0.0000
16875TPSG    Si17814   9.117   7.262   8.171  0.0000  0.0000  0.0000
16875TPSG   CA617815   9.158   7.148   7.913  0.0000  0.0000  0.0000
16875TPSG   HH617816   9.173   7.052   7.962  0.0000  0.0000  0.0000
16875TPSG   CA517817   9.181   7.155   7.774  0.0000  0.0000  0.0000
16875TPSG   HA517818   9.213   7.068   7.719  0.0000  0.0000  0.0000
16875TPSG   CA417819   9.158   7.276   7.706  0.0000  0.0000  0.0000
16875TPSG   HA417820   9.177   7.282   7.599  0.0000  0.0000  0.0000
16875TPSG   CA317821   9.111   7.388   7.776  0.0000  0.0000  0.0000
16875TPSG   HA317822   9.094   7.481   7.722  0.0000  0.0000  0.0000
16875TPSG    O117823   9.233   7.262   8.055  0.0000  0.0000  0.0000
16875TPSG    H617824   9.233   7.262   7.957  0.0000  0.0000  0.0000
16876TPSG   HA217825   1.372   4.517   1.585  0.0000  0.0000  0.0000
16876TPSG   CA217826   1.399   4.609   1.636  0.0000  0.0000  0.0000
16876TPSG   CA117827   1.424   4.728   1.566  0.0000  0.0000  0.0000
16876TPSG    Si17828   1.424   4.728   1.380  0.0000  0.0000  0.0000
16876TPSG   CA617829   1.465   4.842   1.638  0.0000  0.0000  0.0000
16876TPSG   HH617830   1.480   4.938   1.589  0.0000  0.0000  0.0000
16876TPSG   CA517831   1.488   4.835   1.777  0.0000  0.0000  0.0000
16876TPSG   HA517832   1.520   4.922   1.832  0.0000  0.0000  0.0000
16876TPSG   CA417833   1.465   4.714   1.845  0.0000  0.0000  0.0000
16876TPSG   HA417834   1.484   4.708   1.952  0.0000  0.0000  0.0000
16876TPSG   CA317835   1.418   4.602   1.775  0.0000  0.0000  0.0000
16876TPSG   HA317836   1.401   4.509   1.829  0.0000  0.0000  0.0000
16876TPSG    O117837   1.540   4.728   1.496  0.0000  0.0000  0.0000
16876TPSG    H617838   1.540   4.728   1.594  0.0000  0.0000  0.0000
16877TPSG   HA217839   2.683  -0.063   1.529  0.0000  0.0000  0.0000
16877TPSG   CA217840   2.710   0.029   1.580  0.0000  0.0000  0.0000
16877TPSG   CA117841   2.735   0.148   1.510  0.0000  0.0000  0.0000
16877TPSG    Si17842   2.735   0.148   1.324  0.0000  0.0000  0.0000
16877TPSG   CA617843   2.776   0.262   1.582  0.0000  0.0000  0.0000
16877TPSG   HH617844   2.791   0.358   1.533  0.0000  0.0000  0.0000
16877TPSG   CA517845   2.799   0.255   1.721  0.0000  0.0000  0.0000
16877TPSG   HA517846   2.831   0.342   1.776  0.0000  0.0000  0.0000
16877TPSG   CA417847   2.776   0.134   1.789  0.0000  0.0000  0.0000
16877TPSG   HA417848   2.795   0.128   1.896  0.0000  0.0000  0.0000
16877TPSG   CA317849   2.729   0.022   1.719  0.0000  0.0000  0.0000
16877TPSG   HA317850   2.712  -0.071   1.773  0.0000  0.0000  0.0000
16877TPSG    O117851   2.851   0.148   1.440  0.0000  0.0000  0.0000
16877TPSG    H617852   2.851   0.148   1.538  0.0000  0.0000  0.0000
16878TPSG   HA217853   4.762   6.721   1.544  0.0000  0.0000  0.0000
16878TPSG   CA217854   4.789   6.813   1.595  0.0000  0.0000  0.0000
16878TPSG   CA117855   4.814   6.932   1.525  0.0000  0.0000  0.0000
16878TPSG    Si17856   4.814   6.932   1.339  0.0000  0.0000  0.0000
16878TPSG   CA617857   4.855   7.046   1.597  0.0000  0.0000  0.0000
16878TPSG   HH617858   4.870   7.142   1.548  0.0000  0.0000  0.0000
16878TPSG   CA517859   4.878   7.039   1.736  0.0000  0.0000  0.0000
16878TPSG   HA517860   4.910   7.126   1.791  0.0000  0.0000  0.0000
16878TPSG   CA417861   4.855   6.918   1.804  0.0000  0.0000  0.0000
16878TPSG   HA417862   4.874   6.912   1.911  0.0000  0.0000  0.0000
16878TPSG   CA317863   4.808   6.806   1.734  0.0000  0.0000  0.0000
16878TPSG   HA317864   4.791   6.713   1.788  0.0000  0.0000  0.0000
16878TPSG    O117865   4.930   6.932   1.455  0.0000  0.0000  0.0000
16878TPSG    H617866   4.930   6.932   1.553  0.0000  0.0000  0.0000
16879TPSG   HA217867   7.746   2.263   8.047  0.0000  0.0000  0.0000
16879TPSG   CA217868   7.740   2.168   7.996  0.0000  0.0000  0.0000
16879TPSG   CA117869   7.723   2.047   8.066  0.0000  0.0000  0.0000
16879TPSG    Si17870   7.723   2.047   8.252  0.0000  0.0000  0.0000
16879TPSG   CA617871   7.723   1.926   7.994  0.0000  0.0000  0.0000
16879TPSG   HH617872   7.704   1.831   8.043  0.0000  0.0000  0.0000
16879TPSG   CA517873   7.746   1.925   7.855  0.0000  0.0000  0.0000
16879TPSG   HA517874   7.747   1.832   7.800  0.0000  0.0000  0.0000
16879TPSG   CA417875   7.766   2.046   7.787  0.0000  0.0000  0.0000
16879TPSG   HA417876   7.786   2.045   7.680  0.0000  0.0000  0.0000
16879TPSG   CA317877   7.760   2.167   7.857  0.0000  0.0000  0.0000
16879TPSG   HA317878   7.776   2.260   7.803  0.0000  0.0000  0.0000
16879TPSG    O117879   7.832   2.007   8.136  0.0000  0.0000  0.0000
16879TPSG    H617880   7.832   2.007   8.038  0.0000  0.0000  0.0000
16880TPSG   HA217881   7.253   5.636   8.047  0.0000  0.0000  0.0000
16880TPSG   CA217882   7.280   5.544   7.996  0.0000  0.0000  0.0000
16880TPSG   CA117883   7.305   5.425   8.066  0.0000  0.0000  0.0000
16880TPSG    Si17884   7.305   5.425   8.252  0.0000  0.0000  0.0000
16880TPSG   CA617885   7.346   5.311   7.994  0.0000  0.0000  0.0000
16880TPSG   HH617886   7.361   5.215   8.043  0.0000  0.0000  0.0000
16880TPSG   CA517887   7.369   5.318   7.855  0.0000  0.0000  0.0000
16880TPSG   HA517888   7.401   5.231   7.800  0.0000  0.0000  0.0000
16880TPSG   CA417889   7.346   5.439   7.787  0.0000  0.0000  0.0000
16880TPSG   HA417890   7.365   5.445   7.680  0.0000  0.0000  0.0000
16880TPSG   CA317891   7.299   5.551   7.857  0.0000  0.0000  0.0000
16880TPSG   HA317892   7.282   5.644   7.803  0.0000  0.0000  0.0000
16880TPSG    O117893   7.421   5.425   8.136  0.0000  0.0000  0.0000
16880TPSG    H617894   7.421   5.425   8.038  0.0000  0.0000  0.0000
16881TPSG   HA217895   4.321   8.832   7.990  0.0000  0.0000  0.0000
16881TPSG   CA217896   4.348   8.740   7.939  0.0000  0.0000  0.0000
16881TPSG   CA117897   4.373   8.621   8.009  0.0000  0.0000  0.0000
16881TPSG    Si17898   4.373   8.621   8.195  0.0000  0.0000  0.0000
16881TPSG   CA617899   4.414   8.507   7.937  0.0000  0.0000  0.0000
16881TPSG   HH617900   4.429   8.411   7.986  0.0000  0.0000  0.0000
16881TPSG   CA517901   4.437   8.514   7.798  0.0000  0.0000  0.0000
16881TPSG   HA517902   4.469   8.427   7.743  0.0000  0.0000  0.0000
16881TPSG   CA417903   4.414   8.635   7.730  0.0000  0.0000  0.0000
16881TPSG   HA417904   4.433   8.641   7.623  0.0000  0.0000  0.0000
16881TPSG   CA317905   4.367   8.747   7.800  0.0000  0.0000  0.0000
16881TPSG   HA317906   4.350   8.840   7.746  0.0000  0.0000  0.0000
16881TPSG    O117907   4.489   8.621   8.079  0.0000  0.0000  0.0000
16881TPSG    H617908   4.489   8.621   7.981  0.0000  0.0000  0.0000
16882TPSG   HA217909   2.125   3.064   8.065  0.0000  0.0000  0.0000
16882TPSG   CA217910   2.152   2.972   8.014  0.0000  0.0000  0.0000
16882TPSG   CA117911   2.177   2.853   8.084  0.0000  0.0000  0.0000
16882TPSG    Si17912   2.177   2.853   8.270  0.0000  0.0000  0.0000
16882TPSG   CA617913   2.218   2.739   8.012  0.0000  0.0000  0.0000
16882TPSG   HH617914   2.233   2.643   8.061  0.0000  0.0000  0.0000
16882TPSG   CA517915   2.241   2.746   7.873  0.0000  0.0000  0.0000
16882TPSG   HA517916   2.273   2.659   7.818  0.0000  0.0000  0.0000
16882TPSG   CA417917   2.218   2.867   7.805  0.0000  0.0000  0.0000
16882TPSG   HA417918   2.237   2.873   7.698  0.0000  0.0000  0.0000
16882TPSG   CA317919   2.171   2.979   7.875  0.0000  0.0000  0.0000
16882TPSG   HA317920   2.154   3.072   7.821  0.0000  0.0000  0.0000
16882TPSG    O117921   2.293   2.853   8.154  0.0000  0.0000  0.0000
16882TPSG    H617922   2.293   2.853   8.056  0.0000  0.0000  0.0000
16883TPSG   HA217923   5.304   0.757   8.068  0.0000  0.0000  0.0000
16883TPSG   CA217924   5.331   0.665   8.017  0.0000  0.0000  0.0000
16883TPSG   CA117925   5.356   0.546   8.087  0.0000  0.0000  0.0000
16883TPSG    Si17926   5.356   0.546   8.273  0.0000  0.0000  0.0000
16883TPSG   CA617927   5.397   0.432   8.015  0.0000  0.0000  0.0000
16883TPSG   HH617928   5.412   0.336   8.064  0.0000  0.0000  0.0000
16883TPSG   CA517929   5.420   0.439   7.876  0.0000  0.0000  0.0000
16883TPSG   HA517930   5.452   0.352   7.821  0.0000  0.0000  0.0000
16883TPSG   CA417931   5.397   0.560   7.808  0.0000  0.0000  0.0000
16883TPSG   HA417932   5.416   0.566   7.701  0.0000  0.0000  0.0000
16883TPSG   CA317933   5.350   0.672   7.878  0.0000  0.0000  0.0000
16883TPSG   HA317934   5.333   0.765   7.824  0.0000  0.0000  0.0000
16883TPSG    O117935   5.472   0.546   8.157  0.0000  0.0000  0.0000
16883TPSG    H617936   5.472   0.546   8.059  0.0000  0.0000  0.0000
16884TPSG   HA217937   7.416   6.561   8.032  0.0000  0.0000  0.0000
16884TPSG   CA217938   7.443   6.469   7.981  0.0000  0.0000  0.0000
16884TPSG   CA117939   7.468   6.350   8.051  0.0000  0.0000  0.0000
16884TPSG    Si17940   7.468   6.350   8.237  0.0000  0.0000  0.0000
16884TPSG   CA617941   7.509   6.236   7.979  0.0000  0.0000  0.0000
16884TPSG   HH617942   7.524   6.140   8.028  0.0000  0.0000  0.0000
16884TPSG   CA517943   7.532   6.243   7.840  0.0000  0.0000  0.0000
16884TPSG   HA517944   7.564   6.156   7.785  0.0000  0.0000  0.0000
16884TPSG   CA417945   7.509   6.364   7.772  0.0000  0.0000  0.0000
16884TPSG   HA417946   7.528   6.370   7.665  0.0000  0.0000  0.0000
16884TPSG   CA317947   7.462   6.476   7.842  0.0000  0.0000  0.0000
16884TPSG   HA317948   7.445   6.569   7.788  0.0000  0.0000  0.0000
16884TPSG    O117949   7.584   6.350   8.121  0.0000  0.0000  0.0000
16884TPSG    H617950   7.584   6.350   8.023  0.0000  0.0000  0.0000
16885TPSG   HA217951   4.805   6.256   8.031  0.0000  0.0000  0.0000
16885TPSG   CA217952   4.832   6.164   7.980  0.0000  0.0000  0.0000
16885TPSG   CA117953   4.857   6.045   8.050  0.0000  0.0000  0.0000
16885TPSG    Si17954   4.857   6.045   8.236  0.0000  0.0000  0.0000
16885TPSG   CA617955   4.898   5.931   7.978  0.0000  0.0000  0.0000
16885TPSG   HH617956   4.913   5.835   8.027  0.0000  0.0000  0.0000
16885TPSG   CA517957   4.921   5.938   7.839  0.0000  0.0000  0.0000
16885TPSG   HA517958   4.953   5.851   7.784  0.0000  0.0000  0.0000
16885TPSG   CA417959   4.898   6.059   7.771  0.0000  0.0000  0.0000
16885TPSG   HA417960   4.917   6.065   7.664  0.0000  0.0000  0.0000
16885TPSG   CA317961   4.851   6.171   7.841  0.0000  0.0000  0.0000
16885TPSG   HA317962   4.834   6.264   7.787  0.0000  0.0000  0.0000
16885TPSG    O117963   4.973   6.045   8.120  0.0000  0.0000  0.0000
16885TPSG    H617964   4.973   6.045   8.022  0.0000  0.0000  0.0000
16886TPSG   HA217965   8.162   7.534   1.491  0.0000  0.0000  0.0000
16886TPSG   CA217966   8.189   7.626   1.542  0.0000  0.0000  0.0000
16886TPSG   CA117967   8.214   7.745   1.472  0.0000  0.0000  0.0000
16886TPSG    Si17968   8.214   7.745   1.286  0.0000  0.0000  0.0000
16886TPSG   CA617969   8.255   7.859   1.544  0.0000  0.0000  0.0000
16886TPSG   HH617970   8.270   7.955   1.495  0.0000  0.0000  0.0000
16886TPSG   CA517971   8.278   7.852   1.683  0.0000  0.0000  0.0000
16886TPSG   HA517972   8.310   7.939   1.738  0.0000  0.0000  0.0000
16886TPSG   CA417973   8.255   7.731   1.751  0.0000  0.0000  0.0000
16886TPSG   HA417974   8.274   7.725   1.858  0.0000  0.0000  0.0000
16886TPSG   CA317975   8.208   7.619   1.681  0.0000  0.0000  0.0000
16886TPSG   HA317976   8.191   7.526   1.735  0.0000  0.0000  0.0000
16886TPSG    O117977   8.330   7.745   1.402  0.0000  0.0000  0.0000
16886TPSG    H617978   8.330   7.745   1.500  0.0000  0.0000  0.0000
16887TPSG   HA217979   4.682   9.191   7.997  0.0000  0.0000  0.0000
16887TPSG   CA217980   4.688   9.286   7.946  0.0000  0.0000  0.0000
16887TPSG   CA117981   4.705   9.407   8.016  0.0000  0.0000  0.0000
16887TPSG    Si17982   4.705   9.407   8.202  0.0000  0.0000  0.0000
16887TPSG   CA617983   4.705   9.528   7.944  0.0000  0.0000  0.0000
16887TPSG   HH617984   4.724   9.623   7.993  0.0000  0.0000  0.0000
16887TPSG   CA517985   4.682   9.529   7.805  0.0000  0.0000  0.0000
16887TPSG   HA517986   4.681   9.622   7.750  0.0000  0.0000  0.0000
16887TPSG   CA417987   4.662   9.408   7.737  0.0000  0.0000  0.0000
16887TPSG   HA417988   4.642   9.409   7.630  0.0000  0.0000  0.0000
16887TPSG   CA317989   4.668   9.287   7.807  0.0000  0.0000  0.0000
16887TPSG   HA317990   4.652   9.194   7.753  0.0000  0.0000  0.0000
16887TPSG    O117991   4.596   9.447   8.086  0.0000  0.0000  0.0000
16887TPSG    H617992   4.596   9.447   7.988  0.0000  0.0000  0.0000
16888TPSG   HA217993   8.611   7.153   8.036  0.0000  0.0000  0.0000
16888TPSG   CA217994   8.638   7.061   7.985  0.0000  0.0000  0.0000
16888TPSG   CA117995   8.663   6.942   8.055  0.0000  0.0000  0.0000
16888TPSG    Si17996   8.663   6.942   8.241  0.0000  0.0000  0.0000
16888TPSG   CA617997   8.704   6.828   7.983  0.0000  0.0000  0.0000
16888TPSG   HH617998   8.719   6.732   8.032  0.0000  0.0000  0.0000
16888TPSG   CA517999   8.727   6.835   7.844  0.0000  0.0000  0.0000
16888TPSG   HA518000   8.759   6.748   7.789  0.0000  0.0000  0.0000
16888TPSG   CA418001   8.704   6.956   7.776  0.0000  0.0000  0.0000
16888TPSG   HA418002   8.723   6.962   7.669  0.0000  0.0000  0.0000
16888TPSG   CA318003   8.657   7.068   7.846  0.0000  0.0000  0.0000
16888TPSG   HA318004   8.640   7.161   7.792  0.0000  0.0000  0.0000
16888TPSG    O118005   8.779   6.942   8.125  0.0000  0.0000  0.0000
16888TPSG    H618006   8.779   6.942   8.027  0.0000  0.0000  0.0000
16889TPS    HA218007   3.953   3.404   8.100  0.0000  0.0000  0.0000
16889TPS    CA218008   3.980   3.312   8.049  0.0000  0.0000  0.0000
16889TPS    CA118009   4.005   3.193   8.119  0.0000  0.0000  0.0000
16889TPS     Si18010   4.005   3.193   8.305  0.0000  0.0000  0.0000
16889TPS    CA618011   4.046   3.079   8.047  0.0000  0.0000  0.0000
16889TPS    HH618012   4.061   2.983   8.096  0.0000  0.0000  0.0000
16889TPS    CA518013   4.069   3.086   7.908  0.0000  0.0000  0.0000
16889TPS    HA518014   4.101   2.999   7.853  0.0000  0.0000  0.0000
16889TPS    CA418015   4.046   3.207   7.840  0.0000  0.0000  0.0000
16889TPS    HA418016   4.065   3.213   7.733  0.0000  0.0000  0.0000
16889TPS    CA318017   3.999   3.319   7.910  0.0000  0.0000  0.0000
16889TPS    HA318018   3.982   3.412   7.856  0.0000  0.0000  0.0000
16890TPS    HA218019   9.270   5.780   1.331  0.0000  0.0000  0.0000
16890TPS    CA218020   9.297   5.872   1.382  0.0000  0.0000  0.0000
16890TPS    CA118021   9.322   5.991   1.312  0.0000  0.0000  0.0000
16890TPS     Si18022   9.322   5.991   1.126  0.0000  0.0000  0.0000
16890TPS    CA618023   9.363   6.105   1.384  0.0000  0.0000  0.0000
16890TPS    HH618024   9.378   6.201   1.335  0.0000  0.0000  0.0000
16890TPS    CA518025   9.386   6.098   1.523  0.0000  0.0000  0.0000
16890TPS    HA518026   9.418   6.185   1.578  0.0000  0.0000  0.0000
16890TPS    CA418027   9.363   5.977   1.591  0.0000  0.0000  0.0000
16890TPS    HA418028   9.382   5.971   1.698  0.0000  0.0000  0.0000
16890TPS    CA318029   9.316   5.865   1.521  0.0000  0.0000  0.0000
16890TPS    HA318030   9.299   5.772   1.575  0.0000  0.0000  0.0000
16891TPS    HA218031   6.997   3.255   1.457  0.0000  0.0000  0.0000
16891TPS    CA218032   7.024   3.347   1.508  0.0000  0.0000  0.0000
16891TPS    CA118033   7.049   3.466   1.438  0.0000  0.0000  0.0000
16891TPS     Si18034   7.049   3.466   1.252  0.0000  0.0000  0.0000
16891TPS    CA618035   7.090   3.580   1.510  0.0000  0.0000  0.0000
16891TPS    HH618036   7.105   3.676   1.461  0.0000  0.0000  0.0000
16891TPS    CA518037   7.113   3.573   1.649  0.0000  0.0000  0.0000
16891TPS    HA518038   7.145   3.660   1.704  0.0000  0.0000  0.0000
16891TPS    CA418039   7.090   3.452   1.717  0.0000  0.0000  0.0000
16891TPS    HA418040   7.109   3.446   1.824  0.0000  0.0000  0.0000
16891TPS    CA318041   7.043   3.340   1.647  0.0000  0.0000  0.0000
16891TPS    HA318042   7.026   3.247   1.701  0.0000  0.0000  0.0000
16892TPS    HA218043   1.256   5.326   8.232  0.0000  0.0000  0.0000
16892TPS    CA218044   1.283   5.234   8.181  0.0000  0.0000  0.0000
16892TPS    CA118045   1.308   5.115   8.251  0.0000  0.0000  0.0000
16892TPS     Si18046   1.308   5.115   8.437  0.0000  0.0000  0.0000
16892TPS    CA618047   1.349   5.001   8.179  0.0000  0.0000  0.0000
16892TPS    HH618048   1.364   4.905   8.228  0.0000  0.0000  0.0000
16892TPS    CA518049   1.372   5.008   8.040  0.0000  0.0000  0.0000
16892TPS    HA518050   1.404   4.921   7.985  0.0000  0.0000  0.0000
16892TPS    CA418051   1.349   5.129   7.972  0.0000  0.0000  0.0000
16892TPS    HA418052   1.368   5.135   7.865  0.0000  0.0000  0.0000
16892TPS    CA318053   1.302   5.241   8.042  0.0000  0.0000  0.0000
16892TPS    HA318054   1.285   5.334   7.988  0.0000  0.0000  0.0000
16893TPS    HA218055   1.744   0.990   8.076  0.0000  0.0000  0.0000
16893TPS    CA218056   1.771   0.898   8.025  0.0000  0.0000  0.0000
16893TPS    CA118057   1.796   0.779   8.095  0.0000  0.0000  0.0000
16893TPS     Si18058   1.796   0.779   8.281  0.0000  0.0000  0.0000
16893TPS    CA618059   1.837   0.665   8.023  0.0000  0.0000  0.0000
16893TPS    HH618060   1.852   0.569   8.072  0.0000  0.0000  0.0000
16893TPS    CA518061   1.860   0.672   7.884  0.0000  0.0000  0.0000
16893TPS    HA518062   1.892   0.585   7.829  0.0000  0.0000  0.0000
16893TPS    CA418063   1.837   0.793   7.816  0.0000  0.0000  0.0000
16893TPS    HA418064   1.856   0.799   7.709  0.0000  0.0000  0.0000
16893TPS    CA318065   1.790   0.905   7.886  0.0000  0.0000  0.0000
16893TPS    HA318066   1.773   0.998   7.832  0.0000  0.0000  0.0000
16894TPS    HA218067   0.568   7.177   1.539  0.0000  0.0000  0.0000
16894TPS    CA218068   0.595   7.269   1.590  0.0000  0.0000  0.0000
16894TPS    CA118069   0.620   7.388   1.520  0.0000  0.0000  0.0000
16894TPS     Si18070   0.620   7.388   1.334  0.0000  0.0000  0.0000
16894TPS    CA618071   0.661   7.502   1.592  0.0000  0.0000  0.0000
16894TPS    HH618072   0.676   7.598   1.543  0.0000  0.0000  0.0000
16894TPS    CA518073   0.684   7.495   1.731  0.0000  0.0000  0.0000
16894TPS    HA518074   0.716   7.582   1.786  0.0000  0.0000  0.0000
16894TPS    CA418075   0.661   7.374   1.799  0.0000  0.0000  0.0000
16894TPS    HA418076   0.680   7.368   1.906  0.0000  0.0000  0.0000
16894TPS    CA318077   0.614   7.262   1.729  0.0000  0.0000  0.0000
16894TPS    HA318078   0.597   7.169   1.783  0.0000  0.0000  0.0000
16895TPS    HA218079   1.452   4.526   8.256  0.0000  0.0000  0.0000
16895TPS    CA218080   1.479   4.434   8.205  0.0000  0.0000  0.0000
16895TPS    CA118081   1.504   4.315   8.275  0.0000  0.0000  0.0000
16895TPS     Si18082   1.504   4.315   8.461  0.0000  0.0000  0.0000
16895TPS    CA618083   1.545   4.201   8.203  0.0000  0.0000  0.0000
16895TPS    HH618084   1.560   4.105   8.252  0.0000  0.0000  0.0000
16895TPS    CA518085   1.568   4.208   8.064  0.0000  0.0000  0.0000
16895TPS    HA518086   1.600   4.121   8.009  0.0000  0.0000  0.0000
16895TPS    CA418087   1.545   4.329   7.996  0.0000  0.0000  0.0000
16895TPS    HA418088   1.564   4.335   7.889  0.0000  0.0000  0.0000
16895TPS    CA318089   1.498   4.441   8.066  0.0000  0.0000  0.0000
16895TPS    HA318090   1.481   4.534   8.012  0.0000  0.0000  0.0000
16896TPS    HA218091   7.043   3.944   1.563  0.0000  0.0000  0.0000
16896TPS    CA218092   7.070   4.036   1.614  0.0000  0.0000  0.0000
16896TPS    CA118093   7.095   4.155   1.544  0.0000  0.0000  0.0000
16896TPS     Si18094   7.095   4.155   1.358  0.0000  0.0000  0.0000
16896TPS    CA618095   7.136   4.269   1.616  0.0000  0.0000  0.0000
16896TPS    HH618096   7.151   4.365   1.567  0.0000  0.0000  0.0000
16896TPS    CA518097   7.159   4.262   1.755  0.0000  0.0000  0.0000
16896TPS    HA518098   7.191   4.349   1.810  0.0000  0.0000  0.0000
16896TPS    CA418099   7.136   4.141   1.823  0.0000  0.0000  0.0000
16896TPS    HA418100   7.155   4.135   1.930  0.0000  0.0000  0.0000
16896TPS    CA318101   7.089   4.029   1.753  0.0000  0.0000  0.0000
16896TPS    HA318102   7.072   3.936   1.807  0.0000  0.0000  0.0000
16897TPS    HA218103   5.289   3.384   1.501  0.0000  0.0000  0.0000
16897TPS    CA218104   5.250   3.471   1.552  0.0000  0.0000  0.0000
16897TPS    CA118105   5.193   3.579   1.482  0.0000  0.0000  0.0000
16897TPS     Si18106   5.193   3.579   1.296  0.0000  0.0000  0.0000
16897TPS    CA618107   5.151   3.693   1.554  0.0000  0.0000  0.0000
16897TPS    HH618108   5.101   3.776   1.505  0.0000  0.0000  0.0000
16897TPS    CA518109   5.173   3.701   1.693  0.0000  0.0000  0.0000
16897TPS    HA518110   5.142   3.790   1.748  0.0000  0.0000  0.0000
16897TPS    CA418111   5.233   3.595   1.761  0.0000  0.0000  0.0000
16897TPS    HA418112   5.252   3.602   1.868  0.0000  0.0000  0.0000
16897TPS    CA318113   5.269   3.479   1.691  0.0000  0.0000  0.0000
16897TPS    HA318114   5.316   3.396   1.745  0.0000  0.0000  0.0000
16898TPS    HA218115   5.312   7.435   1.426  0.0000  0.0000  0.0000
16898TPS    CA218116   5.339   7.527   1.477  0.0000  0.0000  0.0000
16898TPS    CA118117   5.364   7.646   1.407  0.0000  0.0000  0.0000
16898TPS     Si18118   5.364   7.646   1.221  0.0000  0.0000  0.0000
16898TPS    CA618119   5.405   7.760   1.479  0.0000  0.0000  0.0000
16898TPS    HH618120   5.420   7.856   1.430  0.0000  0.0000  0.0000
16898TPS    CA518121   5.428   7.753   1.618  0.0000  0.0000  0.0000
16898TPS    HA518122   5.460   7.840   1.673  0.0000  0.0000  0.0000
16898TPS    CA418123   5.405   7.632   1.686  0.0000  0.0000  0.0000
16898TPS    HA418124   5.424   7.626   1.793  0.0000  0.0000  0.0000
16898TPS    CA318125   5.358   7.520   1.616  0.0000  0.0000  0.0000
16898TPS    HA318126   5.341   7.427   1.670  0.0000  0.0000  0.0000
16899TPS    HA218127   4.756   8.941   8.112  0.0000  0.0000  0.0000
16899TPS    CA218128   4.783   8.849   8.061  0.0000  0.0000  0.0000
16899TPS    CA118129   4.808   8.730   8.131  0.0000  0.0000  0.0000
16899TPS     Si18130   4.808   8.730   8.317  0.0000  0.0000  0.0000
16899TPS    CA618131   4.849   8.616   8.059  0.0000  0.0000  0.0000
16899TPS    HH618132   4.864   8.520   8.108  0.0000  0.0000  0.0000
16899TPS    CA518133   4.872   8.623   7.920  0.0000  0.0000  0.0000
16899TPS    HA518134   4.904   8.536   7.865  0.0000  0.0000  0.0000
16899TPS    CA418135   4.849   8.744   7.852  0.0000  0.0000  0.0000
16899TPS    HA418136   4.868   8.750   7.745  0.0000  0.0000  0.0000
16899TPS    CA318137   4.802   8.856   7.922  0.0000  0.0000  0.0000
16899TPS    HA318138   4.785   8.949   7.868  0.0000  0.0000  0.0000
16900TPS    HA218139   6.812   5.415   8.228  0.0000  0.0000  0.0000
16900TPS    CA218140   6.839   5.323   8.177  0.0000  0.0000  0.0000
16900TPS    CA118141   6.864   5.204   8.247  0.0000  0.0000  0.0000
16900TPS     Si18142   6.864   5.204   8.433  0.0000  0.0000  0.0000
16900TPS    CA618143   6.905   5.090   8.175  0.0000  0.0000  0.0000
16900TPS    HH618144   6.920   4.994   8.224  0.0000  0.0000  0.0000
16900TPS    CA518145   6.928   5.097   8.036  0.0000  0.0000  0.0000
16900TPS    HA518146   6.960   5.010   7.981  0.0000  0.0000  0.0000
16900TPS    CA418147   6.905   5.218   7.968  0.0000  0.0000  0.0000
16900TPS    HA418148   6.924   5.224   7.861  0.0000  0.0000  0.0000
16900TPS    CA318149   6.858   5.330   8.038  0.0000  0.0000  0.0000
16900TPS    HA318150   6.841   5.423   7.984  0.0000  0.0000  0.0000
16901TPS    HA218151   7.583   3.554   1.619  0.0000  0.0000  0.0000
16901TPS    CA218152   7.610   3.646   1.670  0.0000  0.0000  0.0000
16901TPS    CA118153   7.635   3.765   1.600  0.0000  0.0000  0.0000
16901TPS     Si18154   7.635   3.765   1.414  0.0000  0.0000  0.0000
16901TPS    CA618155   7.676   3.879   1.672  0.0000  0.0000  0.0000
16901TPS    HH618156   7.691   3.975   1.623  0.0000  0.0000  0.0000
16901TPS    CA518157   7.699   3.872   1.811  0.0000  0.0000  0.0000
16901TPS    HA518158   7.731   3.959   1.866  0.0000  0.0000  0.0000
16901TPS    CA418159   7.676   3.751   1.879  0.0000  0.0000  0.0000
16901TPS    HA418160   7.695   3.745   1.986  0.0000  0.0000  0.0000
16901TPS    CA318161   7.629   3.639   1.809  0.0000  0.0000  0.0000
16901TPS    HA318162   7.612   3.546   1.863  0.0000  0.0000  0.0000
16902TPS    HA218163   7.292   5.422   1.470  0.0000  0.0000  0.0000
16902TPS    CA218164   7.319   5.514   1.521  0.0000  0.0000  0.0000
16902TPS    CA118165   7.344   5.633   1.451  0.0000  0.0000  0.0000
16902TPS     Si18166   7.344   5.633   1.265  0.0000  0.0000  0.0000
16902TPS    CA618167   7.385   5.747   1.523  0.0000  0.0000  0.0000
16902TPS    HH618168   7.400   5.843   1.474  0.0000  0.0000  0.0000
16902TPS    CA518169   7.408   5.740   1.662  0.0000  0.0000  0.0000
16902TPS    HA518170   7.440   5.827   1.717  0.0000  0.0000  0.0000
16902TPS    CA418171   7.385   5.619   1.730  0.0000  0.0000  0.0000
16902TPS    HA418172   7.404   5.613   1.837  0.0000  0.0000  0.0000
16902TPS    CA318173   7.338   5.507   1.660  0.0000  0.0000  0.0000
16902TPS    HA318174   7.321   5.414   1.714  0.0000  0.0000  0.0000
16903TPS    HA218175   7.240   0.788   1.514  0.0000  0.0000  0.0000
16903TPS    CA218176   7.147   0.765   1.565  0.0000  0.0000  0.0000
16903TPS    CA118177   7.031   0.727   1.495  0.0000  0.0000  0.0000
16903TPS     Si18178   7.031   0.727   1.309  0.0000  0.0000  0.0000
16903TPS    CA618179   6.912   0.705   1.567  0.0000  0.0000  0.0000
16903TPS    HH618180   6.821   0.671   1.518  0.0000  0.0000  0.0000
16903TPS    CA518181   6.907   0.729   1.706  0.0000  0.0000  0.0000
16903TPS    HA518182   6.815   0.713   1.761  0.0000  0.0000  0.0000
16903TPS    CA418183   7.022   0.769   1.774  0.0000  0.0000  0.0000
16903TPS    HA418184   7.018   0.789   1.881  0.0000  0.0000  0.0000
16903TPS    CA318185   7.143   0.785   1.704  0.0000  0.0000  0.0000
16903TPS    HA318186   7.232   0.816   1.758  0.0000  0.0000  0.0000
16904TPS    HA218187   8.963   5.328   1.357  0.0000  0.0000  0.0000
16904TPS    CA218188   8.990   5.420   1.408  0.0000  0.0000  0.0000
16904TPS    CA118189   9.015   5.539   1.338  0.0000  0.0000  0.0000
16904TPS     Si18190   9.015   5.539   1.152  0.0000  0.0000  0.0000
16904TPS    CA618191   9.056   5.653   1.410  0.0000  0.0000  0.0000
16904TPS    HH618192   9.071   5.749   1.361  0.0000  0.0000  0.0000
16904TPS    CA518193   9.079   5.646   1.549  0.0000  0.0000  0.0000
16904TPS    HA518194   9.111   5.733   1.604  0.0000  0.0000  0.0000
16904TPS    CA418195   9.056   5.525   1.617  0.0000  0.0000  0.0000
16904TPS    HA418196   9.075   5.519   1.724  0.0000  0.0000  0.0000
16904TPS    CA318197   9.009   5.413   1.547  0.0000  0.0000  0.0000
16904TPS    HA318198   8.992   5.320   1.601  0.0000  0.0000  0.0000
16905TPS    HA218199   3.936   4.933   1.599  0.0000  0.0000  0.0000
16905TPS    CA218200   3.963   5.025   1.650  0.0000  0.0000  0.0000
16905TPS    CA118201   3.988   5.144   1.580  0.0000  0.0000  0.0000
16905TPS     Si18202   3.988   5.144   1.394  0.0000  0.0000  0.0000
16905TPS    CA618203   4.029   5.258   1.652  0.0000  0.0000  0.0000
16905TPS    HH618204   4.044   5.354   1.603  0.0000  0.0000  0.0000
16905TPS    CA518205   4.052   5.251   1.791  0.0000  0.0000  0.0000
16905TPS    HA518206   4.084   5.338   1.846  0.0000  0.0000  0.0000
16905TPS    CA418207   4.029   5.130   1.859  0.0000  0.0000  0.0000
16905TPS    HA418208   4.048   5.124   1.966  0.0000  0.0000  0.0000
16905TPS    CA318209   3.982   5.018   1.789  0.0000  0.0000  0.0000
16905TPS    HA318210   3.965   4.925   1.843  0.0000  0.0000  0.0000
16906TPS    HA218211   6.309   2.248   1.605  0.0000  0.0000  0.0000
16906TPS    CA218212   6.336   2.340   1.656  0.0000  0.0000  0.0000
16906TPS    CA118213   6.361   2.459   1.586  0.0000  0.0000  0.0000
16906TPS     Si18214   6.361   2.459   1.400  0.0000  0.0000  0.0000
16906TPS    CA618215   6.402   2.573   1.658  0.0000  0.0000  0.0000
16906TPS    HH618216   6.417   2.669   1.609  0.0000  0.0000  0.0000
16906TPS    CA518217   6.425   2.566   1.797  0.0000  0.0000  0.0000
16906TPS    HA518218   6.457   2.653   1.852  0.0000  0.0000  0.0000
16906TPS    CA418219   6.402   2.445   1.865  0.0000  0.0000  0.0000
16906TPS    HA418220   6.421   2.439   1.972  0.0000  0.0000  0.0000
16906TPS    CA318221   6.355   2.333   1.795  0.0000  0.0000  0.0000
16906TPS    HA318222   6.338   2.240   1.849  0.0000  0.0000  0.0000
16907TPS    HA218223   6.740   3.284   8.115  0.0000  0.0000  0.0000
16907TPS    CA218224   6.767   3.192   8.064  0.0000  0.0000  0.0000
16907TPS    CA118225   6.792   3.073   8.134  0.0000  0.0000  0.0000
16907TPS     Si18226   6.792   3.073   8.320  0.0000  0.0000  0.0000
16907TPS    CA618227   6.833   2.959   8.062  0.0000  0.0000  0.0000
16907TPS    HH618228   6.848   2.863   8.111  0.0000  0.0000  0.0000
16907TPS    CA518229   6.856   2.966   7.923  0.0000  0.0000  0.0000
16907TPS    HA518230   6.888   2.879   7.868  0.0000  0.0000  0.0000
16907TPS    CA418231   6.833   3.087   7.855  0.0000  0.0000  0.0000
16907TPS    HA418232   6.852   3.093   7.748  0.0000  0.0000  0.0000
16907TPS    CA318233   6.786   3.199   7.925  0.0000  0.0000  0.0000
16907TPS    HA318234   6.769   3.292   7.871  0.0000  0.0000  0.0000
16908TPS    HA218235   6.802   2.917   1.608  0.0000  0.0000  0.0000
16908TPS    CA218236   6.829   3.009   1.659  0.0000  0.0000  0.0000
16908TPS    CA118237   6.854   3.128   1.589  0.0000  0.0000  0.0000
16908TPS     Si18238   6.854   3.128   1.403  0.0000  0.0000  0.0000
16908TPS    CA618239   6.895   3.242   1.661  0.0000  0.0000  0.0000
16908TPS    HH618240   6.910   3.338   1.612  0.0000  0.0000  0.0000
16908TPS    CA518241   6.918   3.235   1.800  0.0000  0.0000  0.0000
16908TPS    HA518242   6.950   3.322   1.855  0.0000  0.0000  0.0000
16908TPS    CA418243   6.895   3.114   1.868  0.0000  0.0000  0.0000
16908TPS    HA418244   6.914   3.108   1.975  0.0000  0.0000  0.0000
16908TPS    CA318245   6.848   3.002   1.798  0.0000  0.0000  0.0000
16908TPS    HA318246   6.831   2.909   1.852  0.0000  0.0000  0.0000
16909TPS    HA218247   6.026   5.168   1.410  0.0000  0.0000  0.0000
16909TPS    CA218248   6.053   5.260   1.461  0.0000  0.0000  0.0000
16909TPS    CA118249   6.078   5.379   1.391  0.0000  0.0000  0.0000
16909TPS     Si18250   6.078   5.379   1.205  0.0000  0.0000  0.0000
16909TPS    CA618251   6.119   5.493   1.463  0.0000  0.0000  0.0000
16909TPS    HH618252   6.134   5.589   1.414  0.0000  0.0000  0.0000
16909TPS    CA518253   6.142   5.486   1.602  0.0000  0.0000  0.0000
16909TPS    HA518254   6.174   5.573   1.657  0.0000  0.0000  0.0000
16909TPS    CA418255   6.119   5.365   1.670  0.0000  0.0000  0.0000
16909TPS    HA418256   6.138   5.359   1.777  0.0000  0.0000  0.0000
16909TPS    CA318257   6.072   5.253   1.600  0.0000  0.0000  0.0000
16909TPS    HA318258   6.055   5.160   1.654  0.0000  0.0000  0.0000
16910TPS    HA218259   7.783   8.027   1.348  0.0000  0.0000  0.0000
16910TPS    CA218260   7.810   8.119   1.399  0.0000  0.0000  0.0000
16910TPS    CA118261   7.835   8.238   1.329  0.0000  0.0000  0.0000
16910TPS     Si18262   7.835   8.238   1.143  0.0000  0.0000  0.0000
16910TPS    CA618263   7.876   8.352   1.401  0.0000  0.0000  0.0000
16910TPS    HH618264   7.891   8.448   1.352  0.0000  0.0000  0.0000
16910TPS    CA518265   7.899   8.345   1.540  0.0000  0.0000  0.0000
16910TPS    HA518266   7.931   8.432   1.595  0.0000  0.0000  0.0000
16910TPS    CA418267   7.876   8.224   1.608  0.0000  0.0000  0.0000
16910TPS    HA418268   7.895   8.218   1.715  0.0000  0.0000  0.0000
16910TPS    CA318269   7.829   8.112   1.538  0.0000  0.0000  0.0000
16910TPS    HA318270   7.812   8.019   1.592  0.0000  0.0000  0.0000
16911TPS    HA218271   1.398   7.782   8.127  0.0000  0.0000  0.0000
16911TPS    CA218272   1.425   7.690   8.076  0.0000  0.0000  0.0000
16911TPS    CA118273   1.450   7.571   8.146  0.0000  0.0000  0.0000
16911TPS     Si18274   1.450   7.571   8.332  0.0000  0.0000  0.0000
16911TPS    CA618275   1.491   7.457   8.074  0.0000  0.0000  0.0000
16911TPS    HH618276   1.506   7.361   8.123  0.0000  0.0000  0.0000
16911TPS    CA518277   1.514   7.464   7.935  0.0000  0.0000  0.0000
16911TPS    HA518278   1.546   7.377   7.880  0.0000  0.0000  0.0000
16911TPS    CA418279   1.491   7.585   7.867  0.0000  0.0000  0.0000
16911TPS    HA418280   1.510   7.591   7.760  0.0000  0.0000  0.0000
16911TPS    CA318281   1.444   7.697   7.937  0.0000  0.0000  0.0000
16911TPS    HA318282   1.427   7.790   7.883  0.0000  0.0000  0.0000
16912TPS    HA218283   3.015   4.504   1.566  0.0000  0.0000  0.0000
16912TPS    CA218284   3.042   4.596   1.617  0.0000  0.0000  0.0000
16912TPS    CA118285   3.067   4.715   1.547  0.0000  0.0000  0.0000
16912TPS     Si18286   3.067   4.715   1.361  0.0000  0.0000  0.0000
16912TPS    CA618287   3.108   4.829   1.619  0.0000  0.0000  0.0000
16912TPS    HH618288   3.123   4.925   1.570  0.0000  0.0000  0.0000
16912TPS    CA518289   3.131   4.822   1.758  0.0000  0.0000  0.0000
16912TPS    HA518290   3.163   4.909   1.813  0.0000  0.0000  0.0000
16912TPS    CA418291   3.108   4.701   1.826  0.0000  0.0000  0.0000
16912TPS    HA418292   3.127   4.695   1.933  0.0000  0.0000  0.0000
16912TPS    CA318293   3.061   4.589   1.756  0.0000  0.0000  0.0000
16912TPS    HA318294   3.044   4.496   1.810  0.0000  0.0000  0.0000
16913TPS    HA218295   7.517   8.910   1.618  0.0000  0.0000  0.0000
16913TPS    CA218296   7.544   9.002   1.669  0.0000  0.0000  0.0000
16913TPS    CA118297   7.569   9.121   1.599  0.0000  0.0000  0.0000
16913TPS     Si18298   7.569   9.121   1.413  0.0000  0.0000  0.0000
16913TPS    CA618299   7.610   9.235   1.671  0.0000  0.0000  0.0000
16913TPS    HH618300   7.625   9.331   1.622  0.0000  0.0000  0.0000
16913TPS    CA518301   7.633   9.228   1.810  0.0000  0.0000  0.0000
16913TPS    HA518302   7.665   9.315   1.865  0.0000  0.0000  0.0000
16913TPS    CA418303   7.610   9.107   1.878  0.0000  0.0000  0.0000
16913TPS    HA418304   7.629   9.101   1.985  0.0000  0.0000  0.0000
16913TPS    CA318305   7.563   8.995   1.808  0.0000  0.0000  0.0000
16913TPS    HA318306   7.546   8.902   1.862  0.0000  0.0000  0.0000
16914TPS    HA218307   8.613   5.703   1.496  0.0000  0.0000  0.0000
16914TPS    CA218308   8.640   5.795   1.547  0.0000  0.0000  0.0000
16914TPS    CA118309   8.665   5.914   1.477  0.0000  0.0000  0.0000
16914TPS     Si18310   8.665   5.914   1.291  0.0000  0.0000  0.0000
16914TPS    CA618311   8.706   6.028   1.549  0.0000  0.0000  0.0000
16914TPS    HH618312   8.721   6.124   1.500  0.0000  0.0000  0.0000
16914TPS    CA518313   8.729   6.021   1.688  0.0000  0.0000  0.0000
16914TPS    HA518314   8.761   6.108   1.743  0.0000  0.0000  0.0000
16914TPS    CA418315   8.706   5.900   1.756  0.0000  0.0000  0.0000
16914TPS    HA418316   8.725   5.894   1.863  0.0000  0.0000  0.0000
16914TPS    CA318317   8.659   5.788   1.686  0.0000  0.0000  0.0000
16914TPS    HA318318   8.642   5.695   1.740  0.0000  0.0000  0.0000
16915TPS    HA218319   1.330   6.960   8.035  0.0000  0.0000  0.0000
16915TPS    CA218320   1.357   6.868   7.984  0.0000  0.0000  0.0000
16915TPS    CA118321   1.382   6.749   8.054  0.0000  0.0000  0.0000
16915TPS     Si18322   1.382   6.749   8.240  0.0000  0.0000  0.0000
16915TPS    CA618323   1.423   6.635   7.982  0.0000  0.0000  0.0000
16915TPS    HH618324   1.438   6.539   8.031  0.0000  0.0000  0.0000
16915TPS    CA518325   1.446   6.642   7.843  0.0000  0.0000  0.0000
16915TPS    HA518326   1.478   6.555   7.788  0.0000  0.0000  0.0000
16915TPS    CA418327   1.423   6.763   7.775  0.0000  0.0000  0.0000
16915TPS    HA418328   1.442   6.769   7.668  0.0000  0.0000  0.0000
16915TPS    CA318329   1.376   6.875   7.845  0.0000  0.0000  0.0000
16915TPS    HA318330   1.359   6.968   7.791  0.0000  0.0000  0.0000
16916TPS    HA218331   6.114   6.360   1.590  0.0000  0.0000  0.0000
16916TPS    CA218332   6.141   6.452   1.641  0.0000  0.0000  0.0000
16916TPS    CA118333   6.166   6.571   1.571  0.0000  0.0000  0.0000
16916TPS     Si18334   6.166   6.571   1.385  0.0000  0.0000  0.0000
16916TPS    CA618335   6.207   6.685   1.643  0.0000  0.0000  0.0000
16916TPS    HH618336   6.222   6.781   1.594  0.0000  0.0000  0.0000
16916TPS    CA518337   6.230   6.678   1.782  0.0000  0.0000  0.0000
16916TPS    HA518338   6.262   6.765   1.837  0.0000  0.0000  0.0000
16916TPS    CA418339   6.207   6.557   1.850  0.0000  0.0000  0.0000
16916TPS    HA418340   6.226   6.551   1.957  0.0000  0.0000  0.0000
16916TPS    CA318341   6.160   6.445   1.780  0.0000  0.0000  0.0000
16916TPS    HA318342   6.143   6.352   1.834  0.0000  0.0000  0.0000
16917TPS    HA218343   5.130   3.915   1.491  0.0000  0.0000  0.0000
16917TPS    CA218344   5.157   4.007   1.542  0.0000  0.0000  0.0000
16917TPS    CA118345   5.182   4.126   1.472  0.0000  0.0000  0.0000
16917TPS     Si18346   5.182   4.126   1.286  0.0000  0.0000  0.0000
16917TPS    CA618347   5.223   4.240   1.544  0.0000  0.0000  0.0000
16917TPS    HH618348   5.238   4.336   1.495  0.0000  0.0000  0.0000
16917TPS    CA518349   5.246   4.233   1.683  0.0000  0.0000  0.0000
16917TPS    HA518350   5.278   4.320   1.738  0.0000  0.0000  0.0000
16917TPS    CA418351   5.223   4.112   1.751  0.0000  0.0000  0.0000
16917TPS    HA418352   5.242   4.106   1.858  0.0000  0.0000  0.0000
16917TPS    CA318353   5.176   4.000   1.681  0.0000  0.0000  0.0000
16917TPS    HA318354   5.159   3.907   1.735  0.0000  0.0000  0.0000
16918TPS    HA218355   2.740   7.023   8.093  0.0000  0.0000  0.0000
16918TPS    CA218356   2.767   6.931   8.042  0.0000  0.0000  0.0000
16918TPS    CA118357   2.792   6.812   8.112  0.0000  0.0000  0.0000
16918TPS     Si18358   2.792   6.812   8.298  0.0000  0.0000  0.0000
16918TPS    CA618359   2.833   6.698   8.040  0.0000  0.0000  0.0000
16918TPS    HH618360   2.848   6.602   8.089  0.0000  0.0000  0.0000
16918TPS    CA518361   2.856   6.705   7.901  0.0000  0.0000  0.0000
16918TPS    HA518362   2.888   6.618   7.846  0.0000  0.0000  0.0000
16918TPS    CA418363   2.833   6.826   7.833  0.0000  0.0000  0.0000
16918TPS    HA418364   2.852   6.832   7.726  0.0000  0.0000  0.0000
16918TPS    CA318365   2.786   6.938   7.903  0.0000  0.0000  0.0000
16918TPS    HA318366   2.769   7.031   7.849  0.0000  0.0000  0.0000
16919TPS    HA218367   8.873   0.717   8.153  0.0000  0.0000  0.0000
16919TPS    CA218368   8.900   0.625   8.102  0.0000  0.0000  0.0000
16919TPS    CA118369   8.925   0.506   8.172  0.0000  0.0000  0.0000
16919TPS     Si18370   8.925   0.506   8.358  0.0000  0.0000  0.0000
16919TPS    CA618371   8.966   0.392   8.100  0.0000  0.0000  0.0000
16919TPS    HH618372   8.981   0.296   8.149  0.0000  0.0000  0.0000
16919TPS    CA518373   8.989   0.399   7.961  0.0000  0.0000  0.0000
16919TPS    HA518374   9.021   0.312   7.906  0.0000  0.0000  0.0000
16919TPS    CA418375   8.966   0.520   7.893  0.0000  0.0000  0.0000
16919TPS    HA418376   8.985   0.526   7.786  0.0000  0.0000  0.0000
16919TPS    CA318377   8.919   0.632   7.963  0.0000  0.0000  0.0000
16919TPS    HA318378   8.902   0.725   7.909  0.0000  0.0000  0.0000
16920TPS    HA218379   1.092   6.340   8.151  0.0000  0.0000  0.0000
16920TPS    CA218380   1.119   6.248   8.100  0.0000  0.0000  0.0000
16920TPS    CA118381   1.144   6.129   8.170  0.0000  0.0000  0.0000
16920TPS     Si18382   1.144   6.129   8.356  0.0000  0.0000  0.0000
16920TPS    CA618383   1.185   6.015   8.098  0.0000  0.0000  0.0000
16920TPS    HH618384   1.200   5.919   8.147  0.0000  0.0000  0.0000
16920TPS    CA518385   1.208   6.022   7.959  0.0000  0.0000  0.0000
16920TPS    HA518386   1.240   5.935   7.904  0.0000  0.0000  0.0000
16920TPS    CA418387   1.185   6.143   7.891  0.0000  0.0000  0.0000
16920TPS    HA418388   1.204   6.149   7.784  0.0000  0.0000  0.0000
16920TPS    CA318389   1.138   6.255   7.961  0.0000  0.0000  0.0000
16920TPS    HA318390   1.121   6.348   7.907  0.0000  0.0000  0.0000
16921TPS    HA218391   9.034   4.284   8.225  0.0000  0.0000  0.0000
16921TPS    CA218392   9.061   4.192   8.174  0.0000  0.0000  0.0000
16921TPS    CA118393   9.086   4.073   8.244  0.0000  0.0000  0.0000
16921TPS     Si18394   9.086   4.073   8.430  0.0000  0.0000  0.0000
16921TPS    CA618395   9.127   3.959   8.172  0.0000  0.0000  0.0000
16921TPS    HH618396   9.142   3.863   8.221  0.0000  0.0000  0.0000
16921TPS    CA518397   9.150   3.966   8.033  0.0000  0.0000  0.0000
16921TPS    HA518398   9.182   3.879   7.978  0.0000  0.0000  0.0000
16921TPS    CA418399   9.127   4.087   7.965  0.0000  0.0000  0.0000
16921TPS    HA418400   9.146   4.093   7.858  0.0000  0.0000  0.0000
16921TPS    CA318401   9.080   4.199   8.035  0.0000  0.0000  0.0000
16921TPS    HA318402   9.063   4.292   7.981  0.0000  0.0000  0.0000
16922TPS    HA218403   2.814   2.874   1.460  0.0000  0.0000  0.0000
16922TPS    CA218404   2.808   2.969   1.511  0.0000  0.0000  0.0000
16922TPS    CA118405   2.791   3.090   1.441  0.0000  0.0000  0.0000
16922TPS     Si18406   2.791   3.090   1.255  0.0000  0.0000  0.0000
16922TPS    CA618407   2.791   3.211   1.513  0.0000  0.0000  0.0000
16922TPS    HH618408   2.772   3.306   1.464  0.0000  0.0000  0.0000
16922TPS    CA518409   2.814   3.212   1.652  0.0000  0.0000  0.0000
16922TPS    HA518410   2.815   3.305   1.707  0.0000  0.0000  0.0000
16922TPS    CA418411   2.834   3.091   1.720  0.0000  0.0000  0.0000
16922TPS    HA418412   2.854   3.092   1.827  0.0000  0.0000  0.0000
16922TPS    CA318413   2.828   2.970   1.650  0.0000  0.0000  0.0000
16922TPS    HA318414   2.844   2.877   1.704  0.0000  0.0000  0.0000
16923TPS    HA218415   8.551   3.481   8.169  0.0000  0.0000  0.0000
16923TPS    CA218416   8.578   3.389   8.118  0.0000  0.0000  0.0000
16923TPS    CA118417   8.603   3.270   8.188  0.0000  0.0000  0.0000
16923TPS     Si18418   8.603   3.270   8.374  0.0000  0.0000  0.0000
16923TPS    CA618419   8.644   3.156   8.116  0.0000  0.0000  0.0000
16923TPS    HH618420   8.659   3.060   8.165  0.0000  0.0000  0.0000
16923TPS    CA518421   8.667   3.163   7.977  0.0000  0.0000  0.0000
16923TPS    HA518422   8.699   3.076   7.922  0.0000  0.0000  0.0000
16923TPS    CA418423   8.644   3.284   7.909  0.0000  0.0000  0.0000
16923TPS    HA418424   8.663   3.290   7.802  0.0000  0.0000  0.0000
16923TPS    CA318425   8.597   3.396   7.979  0.0000  0.0000  0.0000
16923TPS    HA318426   8.580   3.489   7.925  0.0000  0.0000  0.0000
16924TPS    HA218427   7.334   0.962   1.524  0.0000  0.0000  0.0000
16924TPS    CA218428   7.361   1.054   1.575  0.0000  0.0000  0.0000
16924TPS    CA118429   7.386   1.173   1.505  0.0000  0.0000  0.0000
16924TPS     Si18430   7.386   1.173   1.319  0.0000  0.0000  0.0000
16924TPS    CA618431   7.427   1.287   1.577  0.0000  0.0000  0.0000
16924TPS    HH618432   7.442   1.383   1.528  0.0000  0.0000  0.0000
16924TPS    CA518433   7.450   1.280   1.716  0.0000  0.0000  0.0000
16924TPS    HA518434   7.482   1.367   1.771  0.0000  0.0000  0.0000
16924TPS    CA418435   7.427   1.159   1.784  0.0000  0.0000  0.0000
16924TPS    HA418436   7.446   1.153   1.891  0.0000  0.0000  0.0000
16924TPS    CA318437   7.380   1.047   1.714  0.0000  0.0000  0.0000
16924TPS    HA318438   7.363   0.954   1.768  0.0000  0.0000  0.0000
16925TPS    HA218439   3.400   9.658   8.190  0.0000  0.0000  0.0000
16925TPS    CA218440   3.427   9.566   8.139  0.0000  0.0000  0.0000
16925TPS    CA118441   3.452   9.447   8.209  0.0000  0.0000  0.0000
16925TPS     Si18442   3.452   9.447   8.395  0.0000  0.0000  0.0000
16925TPS    CA618443   3.493   9.333   8.137  0.0000  0.0000  0.0000
16925TPS    HH618444   3.508   9.237   8.186  0.0000  0.0000  0.0000
16925TPS    CA518445   3.516   9.340   7.998  0.0000  0.0000  0.0000
16925TPS    HA518446   3.548   9.253   7.943  0.0000  0.0000  0.0000
16925TPS    CA418447   3.493   9.461   7.930  0.0000  0.0000  0.0000
16925TPS    HA418448   3.512   9.467   7.823  0.0000  0.0000  0.0000
16925TPS    CA318449   3.446   9.573   8.000  0.0000  0.0000  0.0000
16925TPS    HA318450   3.429   9.666   7.946  0.0000  0.0000  0.0000
16926TPS    HA218451   2.671   5.720   8.068  0.0000  0.0000  0.0000
16926TPS    CA218452   2.698   5.628   8.017  0.0000  0.0000  0.0000
16926TPS    CA118453   2.723   5.509   8.087  0.0000  0.0000  0.0000
16926TPS     Si18454   2.723   5.509   8.273  0.0000  0.0000  0.0000
16926TPS    CA618455   2.764   5.395   8.015  0.0000  0.0000  0.0000
16926TPS    HH618456   2.779   5.299   8.064  0.0000  0.0000  0.0000
16926TPS    CA518457   2.787   5.402   7.876  0.0000  0.0000  0.0000
16926TPS    HA518458   2.819   5.315   7.821  0.0000  0.0000  0.0000
16926TPS    CA418459   2.764   5.523   7.808  0.0000  0.0000  0.0000
16926TPS    HA418460   2.783   5.529   7.701  0.0000  0.0000  0.0000
16926TPS    CA318461   2.717   5.635   7.878  0.0000  0.0000  0.0000
16926TPS    HA318462   2.700   5.728   7.824  0.0000  0.0000  0.0000
16927TPS    HA218463   2.766   8.894   8.168  0.0000  0.0000  0.0000
16927TPS    CA218464   2.793   8.802   8.117  0.0000  0.0000  0.0000
16927TPS    CA118465   2.818   8.683   8.187  0.0000  0.0000  0.0000
16927TPS     Si18466   2.818   8.683   8.373  0.0000  0.0000  0.0000
16927TPS    CA618467   2.859   8.569   8.115  0.0000  0.0000  0.0000
16927TPS    HH618468   2.874   8.473   8.164  0.0000  0.0000  0.0000
16927TPS    CA518469   2.882   8.576   7.976  0.0000  0.0000  0.0000
16927TPS    HA518470   2.914   8.489   7.921  0.0000  0.0000  0.0000
16927TPS    CA418471   2.859   8.697   7.908  0.0000  0.0000  0.0000
16927TPS    HA418472   2.878   8.703   7.801  0.0000  0.0000  0.0000
16927TPS    CA318473   2.812   8.809   7.978  0.0000  0.0000  0.0000
16927TPS    HA318474   2.795   8.902   7.924  0.0000  0.0000  0.0000
16928TPS    HA218475   9.494   2.993   1.408  0.0000  0.0000  0.0000
16928TPS    CA218476   9.521   3.085   1.459  0.0000  0.0000  0.0000
16928TPS    CA118477   9.546   3.204   1.389  0.0000  0.0000  0.0000
16928TPS     Si18478   9.546   3.204   1.203  0.0000  0.0000  0.0000
16928TPS    CA618479   9.587   3.318   1.461  0.0000  0.0000  0.0000
16928TPS    HH618480   9.602   3.414   1.412  0.0000  0.0000  0.0000
16928TPS    CA518481   9.610   3.311   1.600  0.0000  0.0000  0.0000
16928TPS    HA518482   9.642   3.398   1.655  0.0000  0.0000  0.0000
16928TPS    CA418483   9.587   3.190   1.668  0.0000  0.0000  0.0000
16928TPS    HA418484   9.606   3.184   1.775  0.0000  0.0000  0.0000
16928TPS    CA318485   9.540   3.078   1.598  0.0000  0.0000  0.0000
16928TPS    HA318486   9.523   2.985   1.652  0.0000  0.0000  0.0000
16929TPS    HA218487   3.941   2.415   1.541  0.0000  0.0000  0.0000
16929TPS    CA218488   3.968   2.507   1.592  0.0000  0.0000  0.0000
16929TPS    CA118489   3.993   2.626   1.522  0.0000  0.0000  0.0000
16929TPS     Si18490   3.993   2.626   1.336  0.0000  0.0000  0.0000
16929TPS    CA618491   4.034   2.740   1.594  0.0000  0.0000  0.0000
16929TPS    HH618492   4.049   2.836   1.545  0.0000  0.0000  0.0000
16929TPS    CA518493   4.057   2.733   1.733  0.0000  0.0000  0.0000
16929TPS    HA518494   4.089   2.820   1.788  0.0000  0.0000  0.0000
16929TPS    CA418495   4.034   2.612   1.801  0.0000  0.0000  0.0000
16929TPS    HA418496   4.053   2.606   1.908  0.0000  0.0000  0.0000
16929TPS    CA318497   3.987   2.500   1.731  0.0000  0.0000  0.0000
16929TPS    HA318498   3.970   2.407   1.785  0.0000  0.0000  0.0000
16930TPS    HA218499   0.655   9.310   1.374  0.0000  0.0000  0.0000
16930TPS    CA218500   0.682   9.402   1.425  0.0000  0.0000  0.0000
16930TPS    CA118501   0.707   9.521   1.355  0.0000  0.0000  0.0000
16930TPS     Si18502   0.707   9.521   1.169  0.0000  0.0000  0.0000
16930TPS    CA618503   0.748   9.635   1.427  0.0000  0.0000  0.0000
16930TPS    HH618504   0.763   9.731   1.378  0.0000  0.0000  0.0000
16930TPS    CA518505   0.771   9.628   1.566  0.0000  0.0000  0.0000
16930TPS    HA518506   0.803   9.715   1.621  0.0000  0.0000  0.0000
16930TPS    CA418507   0.748   9.507   1.634  0.0000  0.0000  0.0000
16930TPS    HA418508   0.767   9.501   1.741  0.0000  0.0000  0.0000
16930TPS    CA318509   0.701   9.395   1.564  0.0000  0.0000  0.0000
16930TPS    HA318510   0.684   9.302   1.618  0.0000  0.0000  0.0000
16931TPS    HA218511   6.986   5.771   8.016  0.0000  0.0000  0.0000
16931TPS    CA218512   7.013   5.679   7.965  0.0000  0.0000  0.0000
16931TPS    CA118513   7.038   5.560   8.035  0.0000  0.0000  0.0000
16931TPS     Si18514   7.038   5.560   8.221  0.0000  0.0000  0.0000
16931TPS    CA618515   7.079   5.446   7.963  0.0000  0.0000  0.0000
16931TPS    HH618516   7.094   5.350   8.012  0.0000  0.0000  0.0000
16931TPS    CA518517   7.102   5.453   7.824  0.0000  0.0000  0.0000
16931TPS    HA518518   7.134   5.366   7.769  0.0000  0.0000  0.0000
16931TPS    CA418519   7.079   5.574   7.756  0.0000  0.0000  0.0000
16931TPS    HA418520   7.098   5.580   7.649  0.0000  0.0000  0.0000
16931TPS    CA318521   7.032   5.686   7.826  0.0000  0.0000  0.0000
16931TPS    HA318522   7.015   5.779   7.772  0.0000  0.0000  0.0000
16932TPS    HA218523   9.387   0.887   1.558  0.0000  0.0000  0.0000
16932TPS    CA218524   9.414   0.979   1.609  0.0000  0.0000  0.0000
16932TPS    CA118525   9.439   1.098   1.539  0.0000  0.0000  0.0000
16932TPS     Si18526   9.439   1.098   1.353  0.0000  0.0000  0.0000
16932TPS    CA618527   9.480   1.212   1.611  0.0000  0.0000  0.0000
16932TPS    HH618528   9.495   1.308   1.562  0.0000  0.0000  0.0000
16932TPS    CA518529   9.503   1.205   1.750  0.0000  0.0000  0.0000
16932TPS    HA518530   9.535   1.292   1.805  0.0000  0.0000  0.0000
16932TPS    CA418531   9.480   1.084   1.818  0.0000  0.0000  0.0000
16932TPS    HA418532   9.499   1.078   1.925  0.0000  0.0000  0.0000
16932TPS    CA318533   9.433   0.972   1.748  0.0000  0.0000  0.0000
16932TPS    HA318534   9.416   0.879   1.802  0.0000  0.0000  0.0000
16933TPS    HA218535   5.653   0.072   1.375  0.0000  0.0000  0.0000
16933TPS    CA218536   5.680   0.164   1.426  0.0000  0.0000  0.0000
16933TPS    CA118537   5.705   0.283   1.356  0.0000  0.0000  0.0000
16933TPS     Si18538   5.705   0.283   1.170  0.0000  0.0000  0.0000
16933TPS    CA618539   5.746   0.397   1.428  0.0000  0.0000  0.0000
16933TPS    HH618540   5.761   0.493   1.379  0.0000  0.0000  0.0000
16933TPS    CA518541   5.769   0.390   1.567  0.0000  0.0000  0.0000
16933TPS    HA518542   5.801   0.477   1.622  0.0000  0.0000  0.0000
16933TPS    CA418543   5.746   0.269   1.635  0.0000  0.0000  0.0000
16933TPS    HA418544   5.765   0.263   1.742  0.0000  0.0000  0.0000
16933TPS    CA318545   5.699   0.157   1.565  0.0000  0.0000  0.0000
16933TPS    HA318546   5.682   0.064   1.619  0.0000  0.0000  0.0000
16934TPS    HA218547   1.590   5.578   1.540  0.0000  0.0000  0.0000
16934TPS    CA218548   1.617   5.670   1.591  0.0000  0.0000  0.0000
16934TPS    CA118549   1.642   5.789   1.521  0.0000  0.0000  0.0000
16934TPS     Si18550   1.642   5.789   1.335  0.0000  0.0000  0.0000
16934TPS    CA618551   1.683   5.903   1.593  0.0000  0.0000  0.0000
16934TPS    HH618552   1.698   5.999   1.544  0.0000  0.0000  0.0000
16934TPS    CA518553   1.706   5.896   1.732  0.0000  0.0000  0.0000
16934TPS    HA518554   1.738   5.983   1.787  0.0000  0.0000  0.0000
16934TPS    CA418555   1.683   5.775   1.800  0.0000  0.0000  0.0000
16934TPS    HA418556   1.702   5.769   1.907  0.0000  0.0000  0.0000
16934TPS    CA318557   1.636   5.663   1.730  0.0000  0.0000  0.0000
16934TPS    HA318558   1.619   5.570   1.784  0.0000  0.0000  0.0000
16935TPS    HA218559   4.904   0.998   1.439  0.0000  0.0000  0.0000
16935TPS    CA218560   4.931   1.090   1.490  0.0000  0.0000  0.0000
16935TPS    CA118561   4.956   1.209   1.420  0.0000  0.0000  0.0000
16935TPS     Si18562   4.956   1.209   1.234  0.0000  0.0000  0.0000
16935TPS    CA618563   4.997   1.323   1.492  0.0000  0.0000  0.0000
16935TPS    HH618564   5.012   1.419   1.443  0.0000  0.0000  0.0000
16935TPS    CA518565   5.020   1.316   1.631  0.0000  0.0000  0.0000
16935TPS    HA518566   5.052   1.403   1.686  0.0000  0.0000  0.0000
16935TPS    CA418567   4.997   1.195   1.699  0.0000  0.0000  0.0000
16935TPS    HA418568   5.016   1.189   1.806  0.0000  0.0000  0.0000
16935TPS    CA318569   4.950   1.083   1.629  0.0000  0.0000  0.0000
16935TPS    HA318570   4.933   0.990   1.683  0.0000  0.0000  0.0000
16936TPS    HA218571   1.848   3.994   1.580  0.0000  0.0000  0.0000
16936TPS    CA218572   1.875   4.086   1.631  0.0000  0.0000  0.0000
16936TPS    CA118573   1.900   4.205   1.561  0.0000  0.0000  0.0000
16936TPS     Si18574   1.900   4.205   1.375  0.0000  0.0000  0.0000
16936TPS    CA618575   1.941   4.319   1.633  0.0000  0.0000  0.0000
16936TPS    HH618576   1.956   4.415   1.584  0.0000  0.0000  0.0000
16936TPS    CA518577   1.964   4.312   1.772  0.0000  0.0000  0.0000
16936TPS    HA518578   1.996   4.399   1.827  0.0000  0.0000  0.0000
16936TPS    CA418579   1.941   4.191   1.840  0.0000  0.0000  0.0000
16936TPS    HA418580   1.960   4.185   1.947  0.0000  0.0000  0.0000
16936TPS    CA318581   1.894   4.079   1.770  0.0000  0.0000  0.0000
16936TPS    HA318582   1.877   3.986   1.824  0.0000  0.0000  0.0000
16937TPS    HA218583   1.691   6.429   8.066  0.0000  0.0000  0.0000
16937TPS    CA218584   1.605   6.387   8.015  0.0000  0.0000  0.0000
16937TPS    CA118585   1.492   6.341   8.085  0.0000  0.0000  0.0000
16937TPS     Si18586   1.492   6.341   8.271  0.0000  0.0000  0.0000
16937TPS    CA618587   1.387   6.281   8.013  0.0000  0.0000  0.0000
16937TPS    HH618588   1.295   6.249   8.062  0.0000  0.0000  0.0000
16937TPS    CA518589   1.398   6.260   7.874  0.0000  0.0000  0.0000
16937TPS    HA518590   1.317   6.213   7.819  0.0000  0.0000  0.0000
16937TPS    CA418591   1.513   6.303   7.806  0.0000  0.0000  0.0000
16937TPS    HA418592   1.522   6.285   7.699  0.0000  0.0000  0.0000
16937TPS    CA318593   1.615   6.369   7.876  0.0000  0.0000  0.0000
16937TPS    HA318594   1.703   6.402   7.822  0.0000  0.0000  0.0000
16938TPS    HA218595   1.047   7.579   8.040  0.0000  0.0000  0.0000
16938TPS    CA218596   1.074   7.487   7.989  0.0000  0.0000  0.0000
16938TPS    CA118597   1.099   7.368   8.059  0.0000  0.0000  0.0000
16938TPS     Si18598   1.099   7.368   8.245  0.0000  0.0000  0.0000
16938TPS    CA618599   1.140   7.254   7.987  0.0000  0.0000  0.0000
16938TPS    HH618600   1.155   7.158   8.036  0.0000  0.0000  0.0000
16938TPS    CA518601   1.163   7.261   7.848  0.0000  0.0000  0.0000
16938TPS    HA518602   1.195   7.174   7.793  0.0000  0.0000  0.0000
16938TPS    CA418603   1.140   7.382   7.780  0.0000  0.0000  0.0000
16938TPS    HA418604   1.159   7.388   7.673  0.0000  0.0000  0.0000
16938TPS    CA318605   1.093   7.494   7.850  0.0000  0.0000  0.0000
16938TPS    HA318606   1.076   7.587   7.796  0.0000  0.0000  0.0000
16939TPS    HA218607   2.505   3.373   8.176  0.0000  0.0000  0.0000
16939TPS    CA218608   2.532   3.281   8.125  0.0000  0.0000  0.0000
16939TPS    CA118609   2.557   3.162   8.195  0.0000  0.0000  0.0000
16939TPS     Si18610   2.557   3.162   8.381  0.0000  0.0000  0.0000
16939TPS    CA618611   2.598   3.048   8.123  0.0000  0.0000  0.0000
16939TPS    HH618612   2.613   2.952   8.172  0.0000  0.0000  0.0000
16939TPS    CA518613   2.621   3.055   7.984  0.0000  0.0000  0.0000
16939TPS    HA518614   2.653   2.968   7.929  0.0000  0.0000  0.0000
16939TPS    CA418615   2.598   3.176   7.916  0.0000  0.0000  0.0000
16939TPS    HA418616   2.617   3.182   7.809  0.0000  0.0000  0.0000
16939TPS    CA318617   2.551   3.288   7.986  0.0000  0.0000  0.0000
16939TPS    HA318618   2.534   3.381   7.932  0.0000  0.0000  0.0000
16940TPS    HA218619   9.231   8.710   8.131  0.0000  0.0000  0.0000
16940TPS    CA218620   9.258   8.618   8.080  0.0000  0.0000  0.0000
16940TPS    CA118621   9.283   8.499   8.150  0.0000  0.0000  0.0000
16940TPS     Si18622   9.283   8.499   8.336  0.0000  0.0000  0.0000
16940TPS    CA618623   9.324   8.385   8.078  0.0000  0.0000  0.0000
16940TPS    HH618624   9.339   8.289   8.127  0.0000  0.0000  0.0000
16940TPS    CA518625   9.347   8.392   7.939  0.0000  0.0000  0.0000
16940TPS    HA518626   9.379   8.305   7.884  0.0000  0.0000  0.0000
16940TPS    CA418627   9.324   8.513   7.871  0.0000  0.0000  0.0000
16940TPS    HA418628   9.343   8.519   7.764  0.0000  0.0000  0.0000
16940TPS    CA318629   9.277   8.625   7.941  0.0000  0.0000  0.0000
16940TPS    HA318630   9.260   8.718   7.887  0.0000  0.0000  0.0000
16941TPS    HA218631   9.121   2.803   8.123  0.0000  0.0000  0.0000
16941TPS    CA218632   9.148   2.711   8.072  0.0000  0.0000  0.0000
16941TPS    CA118633   9.173   2.592   8.142  0.0000  0.0000  0.0000
16941TPS     Si18634   9.173   2.592   8.328  0.0000  0.0000  0.0000
16941TPS    CA618635   9.214   2.478   8.070  0.0000  0.0000  0.0000
16941TPS    HH618636   9.229   2.382   8.119  0.0000  0.0000  0.0000
16941TPS    CA518637   9.237   2.485   7.931  0.0000  0.0000  0.0000
16941TPS    HA518638   9.269   2.398   7.876  0.0000  0.0000  0.0000
16941TPS    CA418639   9.214   2.606   7.863  0.0000  0.0000  0.0000
16941TPS    HA418640   9.233   2.612   7.756  0.0000  0.0000  0.0000
16941TPS    CA318641   9.167   2.718   7.933  0.0000  0.0000  0.0000
16941TPS    HA318642   9.150   2.811   7.879  0.0000  0.0000  0.0000
16942TPS    HA218643   3.189   5.045   8.058  0.0000  0.0000  0.0000
16942TPS    CA218644   3.216   4.953   8.007  0.0000  0.0000  0.0000
16942TPS    CA118645   3.241   4.834   8.077  0.0000  0.0000  0.0000
16942TPS     Si18646   3.241   4.834   8.263  0.0000  0.0000  0.0000
16942TPS    CA618647   3.282   4.720   8.005  0.0000  0.0000  0.0000
16942TPS    HH618648   3.297   4.624   8.054  0.0000  0.0000  0.0000
16942TPS    CA518649   3.305   4.727   7.866  0.0000  0.0000  0.0000
16942TPS    HA518650   3.337   4.640   7.811  0.0000  0.0000  0.0000
16942TPS    CA418651   3.282   4.848   7.798  0.0000  0.0000  0.0000
16942TPS    HA418652   3.301   4.854   7.691  0.0000  0.0000  0.0000
16942TPS    CA318653   3.235   4.960   7.868  0.0000  0.0000  0.0000
16942TPS    HA318654   3.218   5.053   7.814  0.0000  0.0000  0.0000
16943TPS    HA218655   1.332   8.535   1.434  0.0000  0.0000  0.0000
16943TPS    CA218656   1.338   8.440   1.485  0.0000  0.0000  0.0000
16943TPS    CA118657   1.355   8.319   1.415  0.0000  0.0000  0.0000
16943TPS     Si18658   1.355   8.319   1.229  0.0000  0.0000  0.0000
16943TPS    CA618659   1.355   8.198   1.487  0.0000  0.0000  0.0000
16943TPS    HH618660   1.374   8.103   1.438  0.0000  0.0000  0.0000
16943TPS    CA518661   1.332   8.197   1.626  0.0000  0.0000  0.0000
16943TPS    HA518662   1.331   8.104   1.681  0.0000  0.0000  0.0000
16943TPS    CA418663   1.312   8.318   1.694  0.0000  0.0000  0.0000
16943TPS    HA418664   1.292   8.317   1.801  0.0000  0.0000  0.0000
16943TPS    CA318665   1.318   8.439   1.624  0.0000  0.0000  0.0000
16943TPS    HA318666   1.302   8.532   1.678  0.0000  0.0000  0.0000
16944TPS    HA218667   1.863   3.328   1.394  0.0000  0.0000  0.0000
16944TPS    CA218668   1.857   3.423   1.445  0.0000  0.0000  0.0000
16944TPS    CA118669   1.840   3.544   1.375  0.0000  0.0000  0.0000
16944TPS     Si18670   1.840   3.544   1.189  0.0000  0.0000  0.0000
16944TPS    CA618671   1.840   3.665   1.447  0.0000  0.0000  0.0000
16944TPS    HH618672   1.821   3.760   1.398  0.0000  0.0000  0.0000
16944TPS    CA518673   1.863   3.666   1.586  0.0000  0.0000  0.0000
16944TPS    HA518674   1.864   3.759   1.641  0.0000  0.0000  0.0000
16944TPS    CA418675   1.883   3.545   1.654  0.0000  0.0000  0.0000
16944TPS    HA418676   1.903   3.546   1.761  0.0000  0.0000  0.0000
16944TPS    CA318677   1.877   3.424   1.584  0.0000  0.0000  0.0000
16944TPS    HA318678   1.893   3.331   1.638  0.0000  0.0000  0.0000
16945TPS    HA218679   6.640   7.272   1.639  0.0000  0.0000  0.0000
16945TPS    CA218680   6.667   7.364   1.690  0.0000  0.0000  0.0000
16945TPS    CA118681   6.692   7.483   1.620  0.0000  0.0000  0.0000
16945TPS     Si18682   6.692   7.483   1.434  0.0000  0.0000  0.0000
16945TPS    CA618683   6.733   7.597   1.692  0.0000  0.0000  0.0000
16945TPS    HH618684   6.748   7.693   1.643  0.0000  0.0000  0.0000
16945TPS    CA518685   6.756   7.590   1.831  0.0000  0.0000  0.0000
16945TPS    HA518686   6.788   7.677   1.886  0.0000  0.0000  0.0000
16945TPS    CA418687   6.733   7.469   1.899  0.0000  0.0000  0.0000
16945TPS    HA418688   6.752   7.463   2.006  0.0000  0.0000  0.0000
16945TPS    CA318689   6.686   7.357   1.829  0.0000  0.0000  0.0000
16945TPS    HA318690   6.669   7.264   1.883  0.0000  0.0000  0.0000
16946TPS    HA218691   6.842   7.127   8.044  0.0000  0.0000  0.0000
16946TPS    CA218692   6.803   7.040   7.993  0.0000  0.0000  0.0000
16946TPS    CA118693   6.746   6.932   8.063  0.0000  0.0000  0.0000
16946TPS     Si18694   6.746   6.932   8.249  0.0000  0.0000  0.0000
16946TPS    CA618695   6.704   6.818   7.991  0.0000  0.0000  0.0000
16946TPS    HH618696   6.654   6.735   8.040  0.0000  0.0000  0.0000
16946TPS    CA518697   6.726   6.810   7.852  0.0000  0.0000  0.0000
16946TPS    HA518698   6.695   6.721   7.797  0.0000  0.0000  0.0000
16946TPS    CA418699   6.786   6.916   7.784  0.0000  0.0000  0.0000
16946TPS    HA418700   6.805   6.909   7.677  0.0000  0.0000  0.0000
16946TPS    CA318701   6.822   7.032   7.854  0.0000  0.0000  0.0000
16946TPS    HA318702   6.869   7.115   7.800  0.0000  0.0000  0.0000
16947TPS    HA218703   4.099   4.691   8.040  0.0000  0.0000  0.0000
16947TPS    CA218704   4.126   4.599   7.989  0.0000  0.0000  0.0000
16947TPS    CA118705   4.151   4.480   8.059  0.0000  0.0000  0.0000
16947TPS     Si18706   4.151   4.480   8.245  0.0000  0.0000  0.0000
16947TPS    CA618707   4.192   4.366   7.987  0.0000  0.0000  0.0000
16947TPS    HH618708   4.207   4.270   8.036  0.0000  0.0000  0.0000
16947TPS    CA518709   4.215   4.373   7.848  0.0000  0.0000  0.0000
16947TPS    HA518710   4.247   4.286   7.793  0.0000  0.0000  0.0000
16947TPS    CA418711   4.192   4.494   7.780  0.0000  0.0000  0.0000
16947TPS    HA418712   4.211   4.500   7.673  0.0000  0.0000  0.0000
16947TPS    CA318713   4.145   4.606   7.850  0.0000  0.0000  0.0000
16947TPS    HA318714   4.128   4.699   7.796  0.0000  0.0000  0.0000
16948TPS    HA218715   5.527   7.415   8.192  0.0000  0.0000  0.0000
16948TPS    CA218716   5.554   7.323   8.141  0.0000  0.0000  0.0000
16948TPS    CA118717   5.579   7.204   8.211  0.0000  0.0000  0.0000
16948TPS     Si18718   5.579   7.204   8.397  0.0000  0.0000  0.0000
16948TPS    CA618719   5.620   7.090   8.139  0.0000  0.0000  0.0000
16948TPS    HH618720   5.635   6.994   8.188  0.0000  0.0000  0.0000
16948TPS    CA518721   5.643   7.097   8.000  0.0000  0.0000  0.0000
16948TPS    HA518722   5.675   7.010   7.945  0.0000  0.0000  0.0000
16948TPS    CA418723   5.620   7.218   7.932  0.0000  0.0000  0.0000
16948TPS    HA418724   5.639   7.224   7.825  0.0000  0.0000  0.0000
16948TPS    CA318725   5.573   7.330   8.002  0.0000  0.0000  0.0000
16948TPS    HA318726   5.556   7.423   7.948  0.0000  0.0000  0.0000
16949TPS    HA218727   1.790   2.064   8.082  0.0000  0.0000  0.0000
16949TPS    CA218728   1.817   1.972   8.031  0.0000  0.0000  0.0000
16949TPS    CA118729   1.842   1.853   8.101  0.0000  0.0000  0.0000
16949TPS     Si18730   1.842   1.853   8.287  0.0000  0.0000  0.0000
16949TPS    CA618731   1.883   1.739   8.029  0.0000  0.0000  0.0000
16949TPS    HH618732   1.898   1.643   8.078  0.0000  0.0000  0.0000
16949TPS    CA518733   1.906   1.746   7.890  0.0000  0.0000  0.0000
16949TPS    HA518734   1.938   1.659   7.835  0.0000  0.0000  0.0000
16949TPS    CA418735   1.883   1.867   7.822  0.0000  0.0000  0.0000
16949TPS    HA418736   1.902   1.873   7.715  0.0000  0.0000  0.0000
16949TPS    CA318737   1.836   1.979   7.892  0.0000  0.0000  0.0000
16949TPS    HA318738   1.819   2.072   7.838  0.0000  0.0000  0.0000
16950TPS    HA218739   8.220   3.383   1.487  0.0000  0.0000  0.0000
16950TPS    CA218740   8.247   3.475   1.538  0.0000  0.0000  0.0000
16950TPS    CA118741   8.272   3.594   1.468  0.0000  0.0000  0.0000
16950TPS     Si18742   8.272   3.594   1.282  0.0000  0.0000  0.0000
16950TPS    CA618743   8.313   3.708   1.540  0.0000  0.0000  0.0000
16950TPS    HH618744   8.328   3.804   1.491  0.0000  0.0000  0.0000
16950TPS    CA518745   8.336   3.701   1.679  0.0000  0.0000  0.0000
16950TPS    HA518746   8.368   3.788   1.734  0.0000  0.0000  0.0000
16950TPS    CA418747   8.313   3.580   1.747  0.0000  0.0000  0.0000
16950TPS    HA418748   8.332   3.574   1.854  0.0000  0.0000  0.0000
16950TPS    CA318749   8.266   3.468   1.677  0.0000  0.0000  0.0000
16950TPS    HA318750   8.249   3.375   1.731  0.0000  0.0000  0.0000
16951TPS    HA218751   3.961   7.570   1.636  0.0000  0.0000  0.0000
16951TPS    CA218752   3.988   7.662   1.687  0.0000  0.0000  0.0000
16951TPS    CA118753   4.013   7.781   1.617  0.0000  0.0000  0.0000
16951TPS     Si18754   4.013   7.781   1.431  0.0000  0.0000  0.0000
16951TPS    CA618755   4.054   7.895   1.689  0.0000  0.0000  0.0000
16951TPS    HH618756   4.069   7.991   1.640  0.0000  0.0000  0.0000
16951TPS    CA518757   4.077   7.888   1.828  0.0000  0.0000  0.0000
16951TPS    HA518758   4.109   7.975   1.883  0.0000  0.0000  0.0000
16951TPS    CA418759   4.054   7.767   1.896  0.0000  0.0000  0.0000
16951TPS    HA418760   4.073   7.761   2.003  0.0000  0.0000  0.0000
16951TPS    CA318761   4.007   7.655   1.826  0.0000  0.0000  0.0000
16951TPS    HA318762   3.990   7.562   1.880  0.0000  0.0000  0.0000
16952TPS    HA218763   5.831   1.032   8.049  0.0000  0.0000  0.0000
16952TPS    CA218764   5.858   0.940   7.998  0.0000  0.0000  0.0000
16952TPS    CA118765   5.883   0.821   8.068  0.0000  0.0000  0.0000
16952TPS     Si18766   5.883   0.821   8.254  0.0000  0.0000  0.0000
16952TPS    CA618767   5.924   0.707   7.996  0.0000  0.0000  0.0000
16952TPS    HH618768   5.939   0.611   8.045  0.0000  0.0000  0.0000
16952TPS    CA518769   5.947   0.714   7.857  0.0000  0.0000  0.0000
16952TPS    HA518770   5.979   0.627   7.802  0.0000  0.0000  0.0000
16952TPS    CA418771   5.924   0.835   7.789  0.0000  0.0000  0.0000
16952TPS    HA418772   5.943   0.841   7.682  0.0000  0.0000  0.0000
16952TPS    CA318773   5.877   0.947   7.859  0.0000  0.0000  0.0000
16952TPS    HA318774   5.860   1.040   7.805  0.0000  0.0000  0.0000
16953TPS    HA218775   0.313   1.866   8.050  0.0000  0.0000  0.0000
16953TPS    CA218776   0.340   1.774   7.999  0.0000  0.0000  0.0000
16953TPS    CA118777   0.365   1.655   8.069  0.0000  0.0000  0.0000
16953TPS     Si18778   0.365   1.655   8.255  0.0000  0.0000  0.0000
16953TPS    CA618779   0.406   1.541   7.997  0.0000  0.0000  0.0000
16953TPS    HH618780   0.421   1.445   8.046  0.0000  0.0000  0.0000
16953TPS    CA518781   0.429   1.548   7.858  0.0000  0.0000  0.0000
16953TPS    HA518782   0.461   1.461   7.803  0.0000  0.0000  0.0000
16953TPS    CA418783   0.406   1.669   7.790  0.0000  0.0000  0.0000
16953TPS    HA418784   0.425   1.675   7.683  0.0000  0.0000  0.0000
16953TPS    CA318785   0.359   1.781   7.860  0.0000  0.0000  0.0000
16953TPS    HA318786   0.342   1.874   7.806  0.0000  0.0000  0.0000
16954TPS    HA218787   4.913   5.464   8.133  0.0000  0.0000  0.0000
16954TPS    CA218788   4.940   5.372   8.082  0.0000  0.0000  0.0000
16954TPS    CA118789   4.965   5.253   8.152  0.0000  0.0000  0.0000
16954TPS     Si18790   4.965   5.253   8.338  0.0000  0.0000  0.0000
16954TPS    CA618791   5.006   5.139   8.080  0.0000  0.0000  0.0000
16954TPS    HH618792   5.021   5.043   8.129  0.0000  0.0000  0.0000
16954TPS    CA518793   5.029   5.146   7.941  0.0000  0.0000  0.0000
16954TPS    HA518794   5.061   5.059   7.886  0.0000  0.0000  0.0000
16954TPS    CA418795   5.006   5.267   7.873  0.0000  0.0000  0.0000
16954TPS    HA418796   5.025   5.273   7.766  0.0000  0.0000  0.0000
16954TPS    CA318797   4.959   5.379   7.943  0.0000  0.0000  0.0000
16954TPS    HA318798   4.942   5.472   7.889  0.0000  0.0000  0.0000
16955TPS    HA218799   0.919   2.533   1.349  0.0000  0.0000  0.0000
16955TPS    CA218800   0.833   2.575   1.400  0.0000  0.0000  0.0000
16955TPS    CA118801   0.720   2.621   1.330  0.0000  0.0000  0.0000
16955TPS     Si18802   0.720   2.621   1.144  0.0000  0.0000  0.0000
16955TPS    CA618803   0.615   2.681   1.402  0.0000  0.0000  0.0000
16955TPS    HH618804   0.523   2.713   1.353  0.0000  0.0000  0.0000
16955TPS    CA518805   0.626   2.702   1.541  0.0000  0.0000  0.0000
16955TPS    HA518806   0.545   2.749   1.596  0.0000  0.0000  0.0000
16955TPS    CA418807   0.741   2.659   1.609  0.0000  0.0000  0.0000
16955TPS    HA418808   0.750   2.677   1.716  0.0000  0.0000  0.0000
16955TPS    CA318809   0.843   2.593   1.539  0.0000  0.0000  0.0000
16955TPS    HA318810   0.931   2.560   1.593  0.0000  0.0000  0.0000
16956TPS    HA218811   0.188   6.019   1.522  0.0000  0.0000  0.0000
16956TPS    CA218812   0.215   6.111   1.573  0.0000  0.0000  0.0000
16956TPS    CA118813   0.240   6.230   1.503  0.0000  0.0000  0.0000
16956TPS     Si18814   0.240   6.230   1.317  0.0000  0.0000  0.0000
16956TPS    CA618815   0.281   6.344   1.575  0.0000  0.0000  0.0000
16956TPS    HH618816   0.296   6.440   1.526  0.0000  0.0000  0.0000
16956TPS    CA518817   0.304   6.337   1.714  0.0000  0.0000  0.0000
16956TPS    HA518818   0.336   6.424   1.769  0.0000  0.0000  0.0000
16956TPS    CA418819   0.281   6.216   1.782  0.0000  0.0000  0.0000
16956TPS    HA418820   0.300   6.210   1.889  0.0000  0.0000  0.0000
16956TPS    CA318821   0.234   6.104   1.712  0.0000  0.0000  0.0000
16956TPS    HA318822   0.217   6.011   1.766  0.0000  0.0000  0.0000
16957TPS    HA218823   4.346   8.297   1.490  0.0000  0.0000  0.0000
16957TPS    CA218824   4.373   8.389   1.541  0.0000  0.0000  0.0000
16957TPS    CA118825   4.398   8.508   1.471  0.0000  0.0000  0.0000
16957TPS     Si18826   4.398   8.508   1.285  0.0000  0.0000  0.0000
16957TPS    CA618827   4.439   8.622   1.543  0.0000  0.0000  0.0000
16957TPS    HH618828   4.454   8.718   1.494  0.0000  0.0000  0.0000
16957TPS    CA518829   4.462   8.615   1.682  0.0000  0.0000  0.0000
16957TPS    HA518830   4.494   8.702   1.737  0.0000  0.0000  0.0000
16957TPS    CA418831   4.439   8.494   1.750  0.0000  0.0000  0.0000
16957TPS    HA418832   4.458   8.488   1.857  0.0000  0.0000  0.0000
16957TPS    CA318833   4.392   8.382   1.680  0.0000  0.0000  0.0000
16957TPS    HA318834   4.375   8.289   1.734  0.0000  0.0000  0.0000
16958TPS    HA218835   3.255   8.690   8.026  0.0000  0.0000  0.0000
16958TPS    CA218836   3.282   8.598   7.975  0.0000  0.0000  0.0000
16958TPS    CA118837   3.307   8.479   8.045  0.0000  0.0000  0.0000
16958TPS     Si18838   3.307   8.479   8.231  0.0000  0.0000  0.0000
16958TPS    CA618839   3.348   8.365   7.973  0.0000  0.0000  0.0000
16958TPS    HH618840   3.363   8.269   8.022  0.0000  0.0000  0.0000
16958TPS    CA518841   3.371   8.372   7.834  0.0000  0.0000  0.0000
16958TPS    HA518842   3.403   8.285   7.779  0.0000  0.0000  0.0000
16958TPS    CA418843   3.348   8.493   7.766  0.0000  0.0000  0.0000
16958TPS    HA418844   3.367   8.499   7.659  0.0000  0.0000  0.0000
16958TPS    CA318845   3.301   8.605   7.836  0.0000  0.0000  0.0000
16958TPS    HA318846   3.284   8.698   7.782  0.0000  0.0000  0.0000
16959TPS    HA218847   0.019   6.542   1.624  0.0000  0.0000  0.0000
16959TPS    CA218848   0.046   6.634   1.675  0.0000  0.0000  0.0000
16959TPS    CA118849   0.071   6.753   1.605  0.0000  0.0000  0.0000
16959TPS     Si18850   0.071   6.753   1.419  0.0000  0.0000  0.0000
16959TPS    CA618851   0.112   6.867   1.677  0.0000  0.0000  0.0000
16959TPS    HH618852   0.127   6.963   1.628  0.0000  0.0000  0.0000
16959TPS    CA518853   0.135   6.860   1.816  0.0000  0.0000  0.0000
16959TPS    HA518854   0.167   6.947   1.871  0.0000  0.0000  0.0000
16959TPS    CA418855   0.112   6.739   1.884  0.0000  0.0000  0.0000
16959TPS    HA418856   0.131   6.733   1.991  0.0000  0.0000  0.0000
16959TPS    CA318857   0.065   6.627   1.814  0.0000  0.0000  0.0000
16959TPS    HA318858   0.048   6.534   1.868  0.0000  0.0000  0.0000
16960TPS    HA218859   8.828   2.291   8.008  0.0000  0.0000  0.0000
16960TPS    CA218860   8.855   2.199   7.957  0.0000  0.0000  0.0000
16960TPS    CA118861   8.880   2.080   8.027  0.0000  0.0000  0.0000
16960TPS     Si18862   8.880   2.080   8.213  0.0000  0.0000  0.0000
16960TPS    CA618863   8.921   1.966   7.955  0.0000  0.0000  0.0000
16960TPS    HH618864   8.936   1.870   8.004  0.0000  0.0000  0.0000
16960TPS    CA518865   8.944   1.973   7.816  0.0000  0.0000  0.0000
16960TPS    HA518866   8.976   1.886   7.761  0.0000  0.0000  0.0000
16960TPS    CA418867   8.921   2.094   7.748  0.0000  0.0000  0.0000
16960TPS    HA418868   8.940   2.100   7.641  0.0000  0.0000  0.0000
16960TPS    CA318869   8.874   2.206   7.818  0.0000  0.0000  0.0000
16960TPS    HA318870   8.857   2.299   7.764  0.0000  0.0000  0.0000
16961TPS    HA218871   6.681   3.560   8.182  0.0000  0.0000  0.0000
16961TPS    CA218872   6.737   3.482   8.131  0.0000  0.0000  0.0000
16961TPS    CA118873   6.802   3.379   8.201  0.0000  0.0000  0.0000
16961TPS     Si18874   6.802   3.379   8.387  0.0000  0.0000  0.0000
16961TPS    CA618875   6.880   3.286   8.129  0.0000  0.0000  0.0000
16961TPS    HH618876   6.927   3.201   8.178  0.0000  0.0000  0.0000
16961TPS    CA518877   6.898   3.301   7.990  0.0000  0.0000  0.0000
16961TPS    HA518878   6.959   3.229   7.935  0.0000  0.0000  0.0000
16961TPS    CA418879   6.836   3.406   7.922  0.0000  0.0000  0.0000
16961TPS    HA418880   6.852   3.418   7.815  0.0000  0.0000  0.0000
16961TPS    CA318881   6.753   3.495   7.992  0.0000  0.0000  0.0000
16961TPS    HA318882   6.705   3.577   7.938  0.0000  0.0000  0.0000
16962TPS    HA218883   0.187   1.615   8.079  0.0000  0.0000  0.0000
16962TPS    CA218884   0.214   1.523   8.028  0.0000  0.0000  0.0000
16962TPS    CA118885   0.239   1.404   8.098  0.0000  0.0000  0.0000
16962TPS     Si18886   0.239   1.404   8.284  0.0000  0.0000  0.0000
16962TPS    CA618887   0.280   1.290   8.026  0.0000  0.0000  0.0000
16962TPS    HH618888   0.295   1.194   8.075  0.0000  0.0000  0.0000
16962TPS    CA518889   0.303   1.297   7.887  0.0000  0.0000  0.0000
16962TPS    HA518890   0.335   1.210   7.832  0.0000  0.0000  0.0000
16962TPS    CA418891   0.280   1.418   7.819  0.0000  0.0000  0.0000
16962TPS    HA418892   0.299   1.424   7.712  0.0000  0.0000  0.0000
16962TPS    CA318893   0.233   1.530   7.889  0.0000  0.0000  0.0000
16962TPS    HA318894   0.216   1.623   7.835  0.0000  0.0000  0.0000
16963TPS    HA218895   2.680   7.987   1.472  0.0000  0.0000  0.0000
16963TPS    CA218896   2.707   8.079   1.523  0.0000  0.0000  0.0000
16963TPS    CA118897   2.732   8.198   1.453  0.0000  0.0000  0.0000
16963TPS     Si18898   2.732   8.198   1.267  0.0000  0.0000  0.0000
16963TPS    CA618899   2.773   8.312   1.525  0.0000  0.0000  0.0000
16963TPS    HH618900   2.788   8.408   1.476  0.0000  0.0000  0.0000
16963TPS    CA518901   2.796   8.305   1.664  0.0000  0.0000  0.0000
16963TPS    HA518902   2.828   8.392   1.719  0.0000  0.0000  0.0000
16963TPS    CA418903   2.773   8.184   1.732  0.0000  0.0000  0.0000
16963TPS    HA418904   2.792   8.178   1.839  0.0000  0.0000  0.0000
16963TPS    CA318905   2.726   8.072   1.662  0.0000  0.0000  0.0000
16963TPS    HA318906   2.709   7.979   1.716  0.0000  0.0000  0.0000
16964TPS    HA218907   7.191   4.503   8.186  0.0000  0.0000  0.0000
16964TPS    CA218908   7.218   4.411   8.135  0.0000  0.0000  0.0000
16964TPS    CA118909   7.243   4.292   8.205  0.0000  0.0000  0.0000
16964TPS     Si18910   7.243   4.292   8.391  0.0000  0.0000  0.0000
16964TPS    CA618911   7.284   4.178   8.133  0.0000  0.0000  0.0000
16964TPS    HH618912   7.299   4.082   8.182  0.0000  0.0000  0.0000
16964TPS    CA518913   7.307   4.185   7.994  0.0000  0.0000  0.0000
16964TPS    HA518914   7.339   4.098   7.939  0.0000  0.0000  0.0000
16964TPS    CA418915   7.284   4.306   7.926  0.0000  0.0000  0.0000
16964TPS    HA418916   7.303   4.312   7.819  0.0000  0.0000  0.0000
16964TPS    CA318917   7.237   4.418   7.996  0.0000  0.0000  0.0000
16964TPS    HA318918   7.220   4.511   7.942  0.0000  0.0000  0.0000
16965TPS    HA218919   4.544   8.397   8.132  0.0000  0.0000  0.0000
16965TPS    CA218920   4.571   8.305   8.081  0.0000  0.0000  0.0000
16965TPS    CA118921   4.596   8.186   8.151  0.0000  0.0000  0.0000
16965TPS     Si18922   4.596   8.186   8.337  0.0000  0.0000  0.0000
16965TPS    CA618923   4.637   8.072   8.079  0.0000  0.0000  0.0000
16965TPS    HH618924   4.652   7.976   8.128  0.0000  0.0000  0.0000
16965TPS    CA518925   4.660   8.079   7.940  0.0000  0.0000  0.0000
16965TPS    HA518926   4.692   7.992   7.885  0.0000  0.0000  0.0000
16965TPS    CA418927   4.637   8.200   7.872  0.0000  0.0000  0.0000
16965TPS    HA418928   4.656   8.206   7.765  0.0000  0.0000  0.0000
16965TPS    CA318929   4.590   8.312   7.942  0.0000  0.0000  0.0000
16965TPS    HA318930   4.573   8.405   7.888  0.0000  0.0000  0.0000
16966TPS    HA218931   3.837   9.392   8.087  0.0000  0.0000  0.0000
16966TPS    CA218932   3.864   9.300   8.036  0.0000  0.0000  0.0000
16966TPS    CA118933   3.889   9.181   8.106  0.0000  0.0000  0.0000
16966TPS     Si18934   3.889   9.181   8.292  0.0000  0.0000  0.0000
16966TPS    CA618935   3.930   9.067   8.034  0.0000  0.0000  0.0000
16966TPS    HH618936   3.945   8.971   8.083  0.0000  0.0000  0.0000
16966TPS    CA518937   3.953   9.074   7.895  0.0000  0.0000  0.0000
16966TPS    HA518938   3.985   8.987   7.840  0.0000  0.0000  0.0000
16966TPS    CA418939   3.930   9.195   7.827  0.0000  0.0000  0.0000
16966TPS    HA418940   3.949   9.201   7.720  0.0000  0.0000  0.0000
16966TPS    CA318941   3.883   9.307   7.897  0.0000  0.0000  0.0000
16966TPS    HA318942   3.866   9.400   7.843  0.0000  0.0000  0.0000
16967TPS    HA218943   4.278   5.597   8.037  0.0000  0.0000  0.0000
16967TPS    CA218944   4.305   5.505   7.986  0.0000  0.0000  0.0000
16967TPS    CA118945   4.330   5.386   8.056  0.0000  0.0000  0.0000
16967TPS     Si18946   4.330   5.386   8.242  0.0000  0.0000  0.0000
16967TPS    CA618947   4.371   5.272   7.984  0.0000  0.0000  0.0000
16967TPS    HH618948   4.386   5.176   8.033  0.0000  0.0000  0.0000
16967TPS    CA518949   4.394   5.279   7.845  0.0000  0.0000  0.0000
16967TPS    HA518950   4.426   5.192   7.790  0.0000  0.0000  0.0000
16967TPS    CA418951   4.371   5.400   7.777  0.0000  0.0000  0.0000
16967TPS    HA418952   4.390   5.406   7.670  0.0000  0.0000  0.0000
16967TPS    CA318953   4.324   5.512   7.847  0.0000  0.0000  0.0000
16967TPS    HA318954   4.307   5.605   7.793  0.0000  0.0000  0.0000
16968TPS    HA218955   3.545   9.114   1.363  0.0000  0.0000  0.0000
16968TPS    CA218956   3.572   9.206   1.414  0.0000  0.0000  0.0000
16968TPS    CA118957   3.597   9.325   1.344  0.0000  0.0000  0.0000
16968TPS     Si18958   3.597   9.325   1.158  0.0000  0.0000  0.0000
16968TPS    CA618959   3.638   9.439   1.416  0.0000  0.0000  0.0000
16968TPS    HH618960   3.653   9.535   1.367  0.0000  0.0000  0.0000
16968TPS    CA518961   3.661   9.432   1.555  0.0000  0.0000  0.0000
16968TPS    HA518962   3.693   9.519   1.610  0.0000  0.0000  0.0000
16968TPS    CA418963   3.638   9.311   1.623  0.0000  0.0000  0.0000
16968TPS    HA418964   3.657   9.305   1.730  0.0000  0.0000  0.0000
16968TPS    CA318965   3.591   9.199   1.553  0.0000  0.0000  0.0000
16968TPS    HA318966   3.574   9.106   1.607  0.0000  0.0000  0.0000
16969TPS    HA218967   6.129   7.164   7.996  0.0000  0.0000  0.0000
16969TPS    CA218968   6.090   7.077   7.945  0.0000  0.0000  0.0000
16969TPS    CA118969   6.033   6.969   8.015  0.0000  0.0000  0.0000
16969TPS     Si18970   6.033   6.969   8.201  0.0000  0.0000  0.0000
16969TPS    CA618971   5.991   6.855   7.943  0.0000  0.0000  0.0000
16969TPS    HH618972   5.941   6.772   7.992  0.0000  0.0000  0.0000
16969TPS    CA518973   6.013   6.847   7.804  0.0000  0.0000  0.0000
16969TPS    HA518974   5.982   6.758   7.749  0.0000  0.0000  0.0000
16969TPS    CA418975   6.073   6.953   7.736  0.0000  0.0000  0.0000
16969TPS    HA418976   6.092   6.946   7.629  0.0000  0.0000  0.0000
16969TPS    CA318977   6.109   7.069   7.806  0.0000  0.0000  0.0000
16969TPS    HA318978   6.156   7.152   7.752  0.0000  0.0000  0.0000
16970TPS    HA218979   3.795   7.776   1.463  0.0000  0.0000  0.0000
16970TPS    CA218980   3.834   7.689   1.514  0.0000  0.0000  0.0000
16970TPS    CA118981   3.891   7.581   1.444  0.0000  0.0000  0.0000
16970TPS     Si18982   3.891   7.581   1.258  0.0000  0.0000  0.0000
16970TPS    CA618983   3.933   7.467   1.516  0.0000  0.0000  0.0000
16970TPS    HH618984   3.983   7.384   1.467  0.0000  0.0000  0.0000
16970TPS    CA518985   3.911   7.459   1.655  0.0000  0.0000  0.0000
16970TPS    HA518986   3.942   7.370   1.710  0.0000  0.0000  0.0000
16970TPS    CA418987   3.851   7.565   1.723  0.0000  0.0000  0.0000
16970TPS    HA418988   3.832   7.558   1.830  0.0000  0.0000  0.0000
16970TPS    CA318989   3.815   7.681   1.653  0.0000  0.0000  0.0000
16970TPS    HA318990   3.768   7.764   1.707  0.0000  0.0000  0.0000
16971TPS    HA218991   6.487   6.480   1.376  0.0000  0.0000  0.0000
16971TPS    CA218992   6.514   6.572   1.427  0.0000  0.0000  0.0000
16971TPS    CA118993   6.539   6.691   1.357  0.0000  0.0000  0.0000
16971TPS     Si18994   6.539   6.691   1.171  0.0000  0.0000  0.0000
16971TPS    CA618995   6.580   6.805   1.429  0.0000  0.0000  0.0000
16971TPS    HH618996   6.595   6.901   1.380  0.0000  0.0000  0.0000
16971TPS    CA518997   6.603   6.798   1.568  0.0000  0.0000  0.0000
16971TPS    HA518998   6.635   6.885   1.623  0.0000  0.0000  0.0000
16971TPS    CA418999   6.580   6.677   1.636  0.0000  0.0000  0.0000
16971TPS    HA419000   6.599   6.671   1.743  0.0000  0.0000  0.0000
16971TPS    CA319001   6.533   6.565   1.566  0.0000  0.0000  0.0000
16971TPS    HA319002   6.516   6.472   1.620  0.0000  0.0000  0.0000
16972TPS    HA219003   6.161   4.115   1.538  0.0000  0.0000  0.0000
16972TPS    CA219004   6.188   4.207   1.589  0.0000  0.0000  0.0000
16972TPS    CA119005   6.213   4.326   1.519  0.0000  0.0000  0.0000
16972TPS     Si19006   6.213   4.326   1.333  0.0000  0.0000  0.0000
16972TPS    CA619007   6.254   4.440   1.591  0.0000  0.0000  0.0000
16972TPS    HH619008   6.269   4.536   1.542  0.0000  0.0000  0.0000
16972TPS    CA519009   6.277   4.433   1.730  0.0000  0.0000  0.0000
16972TPS    HA519010   6.309   4.520   1.785  0.0000  0.0000  0.0000
16972TPS    CA419011   6.254   4.312   1.798  0.0000  0.0000  0.0000
16972TPS    HA419012   6.273   4.306   1.905  0.0000  0.0000  0.0000
16972TPS    CA319013   6.207   4.200   1.728  0.0000  0.0000  0.0000
16972TPS    HA319014   6.190   4.107   1.782  0.0000  0.0000  0.0000
16973TPS    HA219015   4.061   9.014   8.035  0.0000  0.0000  0.0000
16973TPS    CA219016   4.088   8.922   7.984  0.0000  0.0000  0.0000
16973TPS    CA119017   4.113   8.803   8.054  0.0000  0.0000  0.0000
16973TPS     Si19018   4.113   8.803   8.240  0.0000  0.0000  0.0000
16973TPS    CA619019   4.154   8.689   7.982  0.0000  0.0000  0.0000
16973TPS    HH619020   4.169   8.593   8.031  0.0000  0.0000  0.0000
16973TPS    CA519021   4.177   8.696   7.843  0.0000  0.0000  0.0000
16973TPS    HA519022   4.209   8.609   7.788  0.0000  0.0000  0.0000
16973TPS    CA419023   4.154   8.817   7.775  0.0000  0.0000  0.0000
16973TPS    HA419024   4.173   8.823   7.668  0.0000  0.0000  0.0000
16973TPS    CA319025   4.107   8.929   7.845  0.0000  0.0000  0.0000
16973TPS    HA319026   4.090   9.022   7.791  0.0000  0.0000  0.0000
16974TPS    HA219027   7.258   7.232   8.068  0.0000  0.0000  0.0000
16974TPS    CA219028   7.285   7.140   8.017  0.0000  0.0000  0.0000
16974TPS    CA119029   7.310   7.021   8.087  0.0000  0.0000  0.0000
16974TPS     Si19030   7.310   7.021   8.273  0.0000  0.0000  0.0000
16974TPS    CA619031   7.351   6.907   8.015  0.0000  0.0000  0.0000
16974TPS    HH619032   7.366   6.811   8.064  0.0000  0.0000  0.0000
16974TPS    CA519033   7.374   6.914   7.876  0.0000  0.0000  0.0000
16974TPS    HA519034   7.406   6.827   7.821  0.0000  0.0000  0.0000
16974TPS    CA419035   7.351   7.035   7.808  0.0000  0.0000  0.0000
16974TPS    HA419036   7.370   7.041   7.701  0.0000  0.0000  0.0000
16974TPS    CA319037   7.304   7.147   7.878  0.0000  0.0000  0.0000
16974TPS    HA319038   7.287   7.240   7.824  0.0000  0.0000  0.0000
16975TPS    HA219039   3.616   2.746   8.172  0.0000  0.0000  0.0000
16975TPS    CA219040   3.643   2.654   8.121  0.0000  0.0000  0.0000
16975TPS    CA119041   3.668   2.535   8.191  0.0000  0.0000  0.0000
16975TPS     Si19042   3.668   2.535   8.377  0.0000  0.0000  0.0000
16975TPS    CA619043   3.709   2.421   8.119  0.0000  0.0000  0.0000
16975TPS    HH619044   3.724   2.325   8.168  0.0000  0.0000  0.0000
16975TPS    CA519045   3.732   2.428   7.980  0.0000  0.0000  0.0000
16975TPS    HA519046   3.764   2.341   7.925  0.0000  0.0000  0.0000
16975TPS    CA419047   3.709   2.549   7.912  0.0000  0.0000  0.0000
16975TPS    HA419048   3.728   2.555   7.805  0.0000  0.0000  0.0000
16975TPS    CA319049   3.662   2.661   7.982  0.0000  0.0000  0.0000
16975TPS    HA319050   3.645   2.754   7.928  0.0000  0.0000  0.0000
16976TPS    HA219051   0.959   7.311   1.395  0.0000  0.0000  0.0000
16976TPS    CA219052   0.986   7.403   1.446  0.0000  0.0000  0.0000
16976TPS    CA119053   1.011   7.522   1.376  0.0000  0.0000  0.0000
16976TPS     Si19054   1.011   7.522   1.190  0.0000  0.0000  0.0000
16976TPS    CA619055   1.052   7.636   1.448  0.0000  0.0000  0.0000
16976TPS    HH619056   1.067   7.732   1.399  0.0000  0.0000  0.0000
16976TPS    CA519057   1.075   7.629   1.587  0.0000  0.0000  0.0000
16976TPS    HA519058   1.107   7.716   1.642  0.0000  0.0000  0.0000
16976TPS    CA419059   1.052   7.508   1.655  0.0000  0.0000  0.0000
16976TPS    HA419060   1.071   7.502   1.762  0.0000  0.0000  0.0000
16976TPS    CA319061   1.005   7.396   1.585  0.0000  0.0000  0.0000
16976TPS    HA319062   0.988   7.303   1.639  0.0000  0.0000  0.0000
16977TPS    HA219063   5.170   5.312   8.182  0.0000  0.0000  0.0000
16977TPS    CA219064   5.197   5.220   8.131  0.0000  0.0000  0.0000
16977TPS    CA119065   5.222   5.101   8.201  0.0000  0.0000  0.0000
16977TPS     Si19066   5.222   5.101   8.387  0.0000  0.0000  0.0000
16977TPS    CA619067   5.263   4.987   8.129  0.0000  0.0000  0.0000
16977TPS    HH619068   5.278   4.891   8.178  0.0000  0.0000  0.0000
16977TPS    CA519069   5.286   4.994   7.990  0.0000  0.0000  0.0000
16977TPS    HA519070   5.318   4.907   7.935  0.0000  0.0000  0.0000
16977TPS    CA419071   5.263   5.115   7.922  0.0000  0.0000  0.0000
16977TPS    HA419072   5.282   5.121   7.815  0.0000  0.0000  0.0000
16977TPS    CA319073   5.216   5.227   7.992  0.0000  0.0000  0.0000
16977TPS    HA319074   5.199   5.320   7.938  0.0000  0.0000  0.0000
16978TPS    HA219075   8.559   5.144   1.512  0.0000  0.0000  0.0000
16978TPS    CA219076   8.586   5.236   1.563  0.0000  0.0000  0.0000
16978TPS    CA119077   8.611   5.355   1.493  0.0000  0.0000  0.0000
16978TPS     Si19078   8.611   5.355   1.307  0.0000  0.0000  0.0000
16978TPS    CA619079   8.652   5.469   1.565  0.0000  0.0000  0.0000
16978TPS    HH619080   8.667   5.565   1.516  0.0000  0.0000  0.0000
16978TPS    CA519081   8.675   5.462   1.704  0.0000  0.0000  0.0000
16978TPS    HA519082   8.707   5.549   1.759  0.0000  0.0000  0.0000
16978TPS    CA419083   8.652   5.341   1.772  0.0000  0.0000  0.0000
16978TPS    HA419084   8.671   5.335   1.879  0.0000  0.0000  0.0000
16978TPS    CA319085   8.605   5.229   1.702  0.0000  0.0000  0.0000
16978TPS    HA319086   8.588   5.136   1.756  0.0000  0.0000  0.0000
16979TPS    HA219087   6.154   3.543   8.269  0.0000  0.0000  0.0000
16979TPS    CA219088   6.181   3.451   8.218  0.0000  0.0000  0.0000
16979TPS    CA119089   6.206   3.332   8.288  0.0000  0.0000  0.0000
16979TPS     Si19090   6.206   3.332   8.474  0.0000  0.0000  0.0000
16979TPS    CA619091   6.247   3.218   8.216  0.0000  0.0000  0.0000
16979TPS    HH619092   6.262   3.122   8.265  0.0000  0.0000  0.0000
16979TPS    CA519093   6.270   3.225   8.077  0.0000  0.0000  0.0000
16979TPS    HA519094   6.302   3.138   8.022  0.0000  0.0000  0.0000
16979TPS    CA419095   6.247   3.346   8.009  0.0000  0.0000  0.0000
16979TPS    HA419096   6.266   3.352   7.902  0.0000  0.0000  0.0000
16979TPS    CA319097   6.200   3.458   8.079  0.0000  0.0000  0.0000
16979TPS    HA319098   6.183   3.551   8.025  0.0000  0.0000  0.0000
16980TPS    HA219099   8.971   1.465   8.027  0.0000  0.0000  0.0000
16980TPS    CA219100   8.998   1.373   7.976  0.0000  0.0000  0.0000
16980TPS    CA119101   9.023   1.254   8.046  0.0000  0.0000  0.0000
16980TPS     Si19102   9.023   1.254   8.232  0.0000  0.0000  0.0000
16980TPS    CA619103   9.064   1.140   7.974  0.0000  0.0000  0.0000
16980TPS    HH619104   9.079   1.044   8.023  0.0000  0.0000  0.0000
16980TPS    CA519105   9.087   1.147   7.835  0.0000  0.0000  0.0000
16980TPS    HA519106   9.119   1.060   7.780  0.0000  0.0000  0.0000
16980TPS    CA419107   9.064   1.268   7.767  0.0000  0.0000  0.0000
16980TPS    HA419108   9.083   1.274   7.660  0.0000  0.0000  0.0000
16980TPS    CA319109   9.017   1.380   7.837  0.0000  0.0000  0.0000
16980TPS    HA319110   9.000   1.473   7.783  0.0000  0.0000  0.0000
16981TPS    HA219111   4.657   0.651   7.996  0.0000  0.0000  0.0000
16981TPS    CA219112   4.684   0.559   7.945  0.0000  0.0000  0.0000
16981TPS    CA119113   4.709   0.440   8.015  0.0000  0.0000  0.0000
16981TPS     Si19114   4.709   0.440   8.201  0.0000  0.0000  0.0000
16981TPS    CA619115   4.750   0.326   7.943  0.0000  0.0000  0.0000
16981TPS    HH619116   4.765   0.230   7.992  0.0000  0.0000  0.0000
16981TPS    CA519117   4.773   0.333   7.804  0.0000  0.0000  0.0000
16981TPS    HA519118   4.805   0.246   7.749  0.0000  0.0000  0.0000
16981TPS    CA419119   4.750   0.454   7.736  0.0000  0.0000  0.0000
16981TPS    HA419120   4.769   0.460   7.629  0.0000  0.0000  0.0000
16981TPS    CA319121   4.703   0.566   7.806  0.0000  0.0000  0.0000
16981TPS    HA319122   4.686   0.659   7.752  0.0000  0.0000  0.0000
16982TPS    HA219123   6.474   8.436   1.375  0.0000  0.0000  0.0000
16982TPS    CA219124   6.501   8.528   1.426  0.0000  0.0000  0.0000
16982TPS    CA119125   6.526   8.647   1.356  0.0000  0.0000  0.0000
16982TPS     Si19126   6.526   8.647   1.170  0.0000  0.0000  0.0000
16982TPS    CA619127   6.567   8.761   1.428  0.0000  0.0000  0.0000
16982TPS    HH619128   6.582   8.857   1.379  0.0000  0.0000  0.0000
16982TPS    CA519129   6.590   8.754   1.567  0.0000  0.0000  0.0000
16982TPS    HA519130   6.622   8.841   1.622  0.0000  0.0000  0.0000
16982TPS    CA419131   6.567   8.633   1.635  0.0000  0.0000  0.0000
16982TPS    HA419132   6.586   8.627   1.742  0.0000  0.0000  0.0000
16982TPS    CA319133   6.520   8.521   1.565  0.0000  0.0000  0.0000
16982TPS    HA319134   6.503   8.428   1.619  0.0000  0.0000  0.0000
16983TPS    HA219135   5.466   4.129   8.091  0.0000  0.0000  0.0000
16983TPS    CA219136   5.493   4.037   8.040  0.0000  0.0000  0.0000
16983TPS    CA119137   5.518   3.918   8.110  0.0000  0.0000  0.0000
16983TPS     Si19138   5.518   3.918   8.296  0.0000  0.0000  0.0000
16983TPS    CA619139   5.559   3.804   8.038  0.0000  0.0000  0.0000
16983TPS    HH619140   5.574   3.708   8.087  0.0000  0.0000  0.0000
16983TPS    CA519141   5.582   3.811   7.899  0.0000  0.0000  0.0000
16983TPS    HA519142   5.614   3.724   7.844  0.0000  0.0000  0.0000
16983TPS    CA419143   5.559   3.932   7.831  0.0000  0.0000  0.0000
16983TPS    HA419144   5.578   3.938   7.724  0.0000  0.0000  0.0000
16983TPS    CA319145   5.512   4.044   7.901  0.0000  0.0000  0.0000
16983TPS    HA319146   5.495   4.137   7.847  0.0000  0.0000  0.0000
16984TPS    HA219147   9.008   8.488   8.127  0.0000  0.0000  0.0000
16984TPS    CA219148   9.035   8.396   8.076  0.0000  0.0000  0.0000
16984TPS    CA119149   9.060   8.277   8.146  0.0000  0.0000  0.0000
16984TPS     Si19150   9.060   8.277   8.332  0.0000  0.0000  0.0000
16984TPS    CA619151   9.101   8.163   8.074  0.0000  0.0000  0.0000
16984TPS    HH619152   9.116   8.067   8.123  0.0000  0.0000  0.0000
16984TPS    CA519153   9.124   8.170   7.935  0.0000  0.0000  0.0000
16984TPS    HA519154   9.156   8.083   7.880  0.0000  0.0000  0.0000
16984TPS    CA419155   9.101   8.291   7.867  0.0000  0.0000  0.0000
16984TPS    HA419156   9.120   8.297   7.760  0.0000  0.0000  0.0000
16984TPS    CA319157   9.054   8.403   7.937  0.0000  0.0000  0.0000
16984TPS    HA319158   9.037   8.496   7.883  0.0000  0.0000  0.0000
16985TPS    HA219159   1.309   1.711   1.460  0.0000  0.0000  0.0000
16985TPS    CA219160   1.243   1.779   1.511  0.0000  0.0000  0.0000
16985TPS    CA119161   1.152   1.861   1.441  0.0000  0.0000  0.0000
16985TPS     Si19162   1.152   1.861   1.255  0.0000  0.0000  0.0000
16985TPS    CA619163   1.074   1.954   1.513  0.0000  0.0000  0.0000
16985TPS    HH619164   0.999   2.015   1.464  0.0000  0.0000  0.0000
16985TPS    CA519165   1.091   1.969   1.652  0.0000  0.0000  0.0000
16985TPS    HA519166   1.032   2.041   1.707  0.0000  0.0000  0.0000
16985TPS    CA419167   1.184   1.890   1.720  0.0000  0.0000  0.0000
16985TPS    HA419168   1.199   1.903   1.827  0.0000  0.0000  0.0000
16985TPS    CA319169   1.258   1.793   1.650  0.0000  0.0000  0.0000
16985TPS    HA319170   1.330   1.731   1.704  0.0000  0.0000  0.0000
16986TPS    HA219171   2.757   6.239   1.460  0.0000  0.0000  0.0000
16986TPS    CA219172   2.784   6.331   1.511  0.0000  0.0000  0.0000
16986TPS    CA119173   2.809   6.450   1.441  0.0000  0.0000  0.0000
16986TPS     Si19174   2.809   6.450   1.255  0.0000  0.0000  0.0000
16986TPS    CA619175   2.850   6.564   1.513  0.0000  0.0000  0.0000
16986TPS    HH619176   2.865   6.660   1.464  0.0000  0.0000  0.0000
16986TPS    CA519177   2.873   6.557   1.652  0.0000  0.0000  0.0000
16986TPS    HA519178   2.905   6.644   1.707  0.0000  0.0000  0.0000
16986TPS    CA419179   2.850   6.436   1.720  0.0000  0.0000  0.0000
16986TPS    HA419180   2.869   6.430   1.827  0.0000  0.0000  0.0000
16986TPS    CA319181   2.803   6.324   1.650  0.0000  0.0000  0.0000
16986TPS    HA319182   2.786   6.231   1.704  0.0000  0.0000  0.0000
16987TPS    HA219183   9.335  -0.094   1.342  0.0000  0.0000  0.0000
16987TPS    CA219184   9.362  -0.002   1.393  0.0000  0.0000  0.0000
16987TPS    CA119185   9.387   0.117   1.323  0.0000  0.0000  0.0000
16987TPS     Si19186   9.387   0.117   1.137  0.0000  0.0000  0.0000
16987TPS    CA619187   9.428   0.231   1.395  0.0000  0.0000  0.0000
16987TPS    HH619188   9.443   0.327   1.346  0.0000  0.0000  0.0000
16987TPS    CA519189   9.451   0.224   1.534  0.0000  0.0000  0.0000
16987TPS    HA519190   9.483   0.311   1.589  0.0000  0.0000  0.0000
16987TPS    CA419191   9.428   0.103   1.602  0.0000  0.0000  0.0000
16987TPS    HA419192   9.447   0.097   1.709  0.0000  0.0000  0.0000
16987TPS    CA319193   9.381  -0.009   1.532  0.0000  0.0000  0.0000
16987TPS    HA319194   9.364  -0.102   1.586  0.0000  0.0000  0.0000
16988TPS    HA219195   8.442   4.568   1.627  0.0000  0.0000  0.0000
16988TPS    CA219196   8.376   4.636   1.678  0.0000  0.0000  0.0000
16988TPS    CA119197   8.285   4.718   1.608  0.0000  0.0000  0.0000
16988TPS     Si19198   8.285   4.718   1.422  0.0000  0.0000  0.0000
16988TPS    CA619199   8.207   4.811   1.680  0.0000  0.0000  0.0000
16988TPS    HH619200   8.132   4.872   1.631  0.0000  0.0000  0.0000
16988TPS    CA519201   8.224   4.826   1.819  0.0000  0.0000  0.0000
16988TPS    HA519202   8.165   4.898   1.874  0.0000  0.0000  0.0000
16988TPS    CA419203   8.317   4.747   1.887  0.0000  0.0000  0.0000
16988TPS    HA419204   8.332   4.760   1.994  0.0000  0.0000  0.0000
16988TPS    CA319205   8.391   4.650   1.817  0.0000  0.0000  0.0000
16988TPS    HA319206   8.463   4.588   1.871  0.0000  0.0000  0.0000
16989TPS    HA219207   9.454   1.879   1.592  0.0000  0.0000  0.0000
16989TPS    CA219208   9.481   1.971   1.643  0.0000  0.0000  0.0000
16989TPS    CA119209   9.506   2.090   1.573  0.0000  0.0000  0.0000
16989TPS     Si19210   9.506   2.090   1.387  0.0000  0.0000  0.0000
16989TPS    CA619211   9.547   2.204   1.645  0.0000  0.0000  0.0000
16989TPS    HH619212   9.562   2.300   1.596  0.0000  0.0000  0.0000
16989TPS    CA519213   9.570   2.197   1.784  0.0000  0.0000  0.0000
16989TPS    HA519214   9.602   2.284   1.839  0.0000  0.0000  0.0000
16989TPS    CA419215   9.547   2.076   1.852  0.0000  0.0000  0.0000
16989TPS    HA419216   9.566   2.070   1.959  0.0000  0.0000  0.0000
16989TPS    CA319217   9.500   1.964   1.782  0.0000  0.0000  0.0000
16989TPS    HA319218   9.483   1.871   1.836  0.0000  0.0000  0.0000
16990TPS    HA219219   2.245   3.716   1.555  0.0000  0.0000  0.0000
16990TPS    CA219220   2.272   3.808   1.606  0.0000  0.0000  0.0000
16990TPS    CA119221   2.297   3.927   1.536  0.0000  0.0000  0.0000
16990TPS     Si19222   2.297   3.927   1.350  0.0000  0.0000  0.0000
16990TPS    CA619223   2.338   4.041   1.608  0.0000  0.0000  0.0000
16990TPS    HH619224   2.353   4.137   1.559  0.0000  0.0000  0.0000
16990TPS    CA519225   2.361   4.034   1.747  0.0000  0.0000  0.0000
16990TPS    HA519226   2.393   4.121   1.802  0.0000  0.0000  0.0000
16990TPS    CA419227   2.338   3.913   1.815  0.0000  0.0000  0.0000
16990TPS    HA419228   2.357   3.907   1.922  0.0000  0.0000  0.0000
16990TPS    CA319229   2.291   3.801   1.745  0.0000  0.0000  0.0000
16990TPS    HA319230   2.274   3.708   1.799  0.0000  0.0000  0.0000
16991TPS    HA219231   2.303   5.991   8.122  0.0000  0.0000  0.0000
16991TPS    CA219232   2.330   5.899   8.071  0.0000  0.0000  0.0000
16991TPS    CA119233   2.355   5.780   8.141  0.0000  0.0000  0.0000
16991TPS     Si19234   2.355   5.780   8.327  0.0000  0.0000  0.0000
16991TPS    CA619235   2.396   5.666   8.069  0.0000  0.0000  0.0000
16991TPS    HH619236   2.411   5.570   8.118  0.0000  0.0000  0.0000
16991TPS    CA519237   2.419   5.673   7.930  0.0000  0.0000  0.0000
16991TPS    HA519238   2.451   5.586   7.875  0.0000  0.0000  0.0000
16991TPS    CA419239   2.396   5.794   7.862  0.0000  0.0000  0.0000
16991TPS    HA419240   2.415   5.800   7.755  0.0000  0.0000  0.0000
16991TPS    CA319241   2.349   5.906   7.932  0.0000  0.0000  0.0000
16991TPS    HA319242   2.332   5.999   7.878  0.0000  0.0000  0.0000
16992TPS    HA219243   9.366   3.477   8.056  0.0000  0.0000  0.0000
16992TPS    CA219244   9.393   3.385   8.005  0.0000  0.0000  0.0000
16992TPS    CA119245   9.418   3.266   8.075  0.0000  0.0000  0.0000
16992TPS     Si19246   9.418   3.266   8.261  0.0000  0.0000  0.0000
16992TPS    CA619247   9.459   3.152   8.003  0.0000  0.0000  0.0000
16992TPS    HH619248   9.474   3.056   8.052  0.0000  0.0000  0.0000
16992TPS    CA519249   9.482   3.159   7.864  0.0000  0.0000  0.0000
16992TPS    HA519250   9.514   3.072   7.809  0.0000  0.0000  0.0000
16992TPS    CA419251   9.459   3.280   7.796  0.0000  0.0000  0.0000
16992TPS    HA419252   9.478   3.286   7.689  0.0000  0.0000  0.0000
16992TPS    CA319253   9.412   3.392   7.866  0.0000  0.0000  0.0000
16992TPS    HA319254   9.395   3.485   7.812  0.0000  0.0000  0.0000
16993TPS    HA219255   8.458   3.768   1.536  0.0000  0.0000  0.0000
16993TPS    CA219256   8.485   3.860   1.587  0.0000  0.0000  0.0000
16993TPS    CA119257   8.510   3.979   1.517  0.0000  0.0000  0.0000
16993TPS     Si19258   8.510   3.979   1.331  0.0000  0.0000  0.0000
16993TPS    CA619259   8.551   4.093   1.589  0.0000  0.0000  0.0000
16993TPS    HH619260   8.566   4.189   1.540  0.0000  0.0000  0.0000
16993TPS    CA519261   8.574   4.086   1.728  0.0000  0.0000  0.0000
16993TPS    HA519262   8.606   4.173   1.783  0.0000  0.0000  0.0000
16993TPS    CA419263   8.551   3.965   1.796  0.0000  0.0000  0.0000
16993TPS    HA419264   8.570   3.959   1.903  0.0000  0.0000  0.0000
16993TPS    CA319265   8.504   3.853   1.726  0.0000  0.0000  0.0000
16993TPS    HA319266   8.487   3.760   1.780  0.0000  0.0000  0.0000
16994TPS    HA219267   4.826   8.954   1.557  0.0000  0.0000  0.0000
16994TPS    CA219268   4.853   9.046   1.608  0.0000  0.0000  0.0000
16994TPS    CA119269   4.878   9.165   1.538  0.0000  0.0000  0.0000
16994TPS     Si19270   4.878   9.165   1.352  0.0000  0.0000  0.0000
16994TPS    CA619271   4.919   9.279   1.610  0.0000  0.0000  0.0000
16994TPS    HH619272   4.934   9.375   1.561  0.0000  0.0000  0.0000
16994TPS    CA519273   4.942   9.272   1.749  0.0000  0.0000  0.0000
16994TPS    HA519274   4.974   9.359   1.804  0.0000  0.0000  0.0000
16994TPS    CA419275   4.919   9.151   1.817  0.0000  0.0000  0.0000
16994TPS    HA419276   4.938   9.145   1.924  0.0000  0.0000  0.0000
16994TPS    CA319277   4.872   9.039   1.747  0.0000  0.0000  0.0000
16994TPS    HA319278   4.855   8.946   1.801  0.0000  0.0000  0.0000
16995TPS    HA219279   5.197   8.238   1.556  0.0000  0.0000  0.0000
16995TPS    CA219280   5.191   8.333   1.607  0.0000  0.0000  0.0000
16995TPS    CA119281   5.174   8.454   1.537  0.0000  0.0000  0.0000
16995TPS     Si19282   5.174   8.454   1.351  0.0000  0.0000  0.0000
16995TPS    CA619283   5.174   8.575   1.609  0.0000  0.0000  0.0000
16995TPS    HH619284   5.155   8.670   1.560  0.0000  0.0000  0.0000
16995TPS    CA519285   5.197   8.576   1.748  0.0000  0.0000  0.0000
16995TPS    HA519286   5.198   8.669   1.803  0.0000  0.0000  0.0000
16995TPS    CA419287   5.217   8.455   1.816  0.0000  0.0000  0.0000
16995TPS    HA419288   5.237   8.456   1.923  0.0000  0.0000  0.0000
16995TPS    CA319289   5.211   8.334   1.746  0.0000  0.0000  0.0000
16995TPS    HA319290   5.227   8.241   1.800  0.0000  0.0000  0.0000
16996TPS    HA219291   2.986   3.325   1.058  0.0000  0.0000  0.0000
16996TPS    CA219292   2.959   3.233   1.109  0.0000  0.0000  0.0000
16996TPS    CA119293   2.934   3.114   1.039  0.0000  0.0000  0.0000
16996TPS     Si19294   2.934   3.114   0.853  0.0000  0.0000  0.0000
16996TPS    CA619295   2.893   3.000   1.111  0.0000  0.0000  0.0000
16996TPS    HH619296   2.878   2.904   1.062  0.0000  0.0000  0.0000
16996TPS    CA519297   2.870   3.007   1.250  0.0000  0.0000  0.0000
16996TPS    HA519298   2.838   2.920   1.305  0.0000  0.0000  0.0000
16996TPS    CA419299   2.893   3.128   1.318  0.0000  0.0000  0.0000
16996TPS    HA419300   2.874   3.134   1.425  0.0000  0.0000  0.0000
16996TPS    CA319301   2.940   3.240   1.248  0.0000  0.0000  0.0000
16996TPS    HA319302   2.957   3.333   1.302  0.0000  0.0000  0.0000
16997TPS    HA219303   3.335   2.148   8.340  0.0000  0.0000  0.0000
16997TPS    CA219304   3.362   2.056   8.289  0.0000  0.0000  0.0000
16997TPS    CA119305   3.387   1.937   8.359  0.0000  0.0000  0.0000
16997TPS     Si19306   3.387   1.937   8.545  0.0000  0.0000  0.0000
16997TPS    CA619307   3.428   1.823   8.287  0.0000  0.0000  0.0000
16997TPS    HH619308   3.443   1.727   8.336  0.0000  0.0000  0.0000
16997TPS    CA519309   3.451   1.830   8.148  0.0000  0.0000  0.0000
16997TPS    HA519310   3.483   1.743   8.093  0.0000  0.0000  0.0000
16997TPS    CA419311   3.428   1.951   8.080  0.0000  0.0000  0.0000
16997TPS    HA419312   3.447   1.957   7.973  0.0000  0.0000  0.0000
16997TPS    CA319313   3.381   2.063   8.150  0.0000  0.0000  0.0000
16997TPS    HA319314   3.364   2.156   8.096  0.0000  0.0000  0.0000
16998TPS    HA219315   8.395   1.568   1.494  0.0000  0.0000  0.0000
16998TPS    CA219316   8.422   1.660   1.545  0.0000  0.0000  0.0000
16998TPS    CA119317   8.447   1.779   1.475  0.0000  0.0000  0.0000
16998TPS     Si19318   8.447   1.779   1.289  0.0000  0.0000  0.0000
16998TPS    CA619319   8.488   1.893   1.547  0.0000  0.0000  0.0000
16998TPS    HH619320   8.503   1.989   1.498  0.0000  0.0000  0.0000
16998TPS    CA519321   8.511   1.886   1.686  0.0000  0.0000  0.0000
16998TPS    HA519322   8.543   1.973   1.741  0.0000  0.0000  0.0000
16998TPS    CA419323   8.488   1.765   1.754  0.0000  0.0000  0.0000
16998TPS    HA419324   8.507   1.759   1.861  0.0000  0.0000  0.0000
16998TPS    CA319325   8.441   1.653   1.684  0.0000  0.0000  0.0000
16998TPS    HA319326   8.424   1.560   1.738  0.0000  0.0000  0.0000
16999TPS    HA219327   9.269   1.376   7.983  0.0000  0.0000  0.0000
16999TPS    CA219328   9.296   1.284   7.932  0.0000  0.0000  0.0000
16999TPS    CA119329   9.321   1.165   8.002  0.0000  0.0000  0.0000
16999TPS     Si19330   9.321   1.165   8.188  0.0000  0.0000  0.0000
16999TPS    CA619331   9.362   1.051   7.930  0.0000  0.0000  0.0000
16999TPS    HH619332   9.377   0.955   7.979  0.0000  0.0000  0.0000
16999TPS    CA519333   9.385   1.058   7.791  0.0000  0.0000  0.0000
16999TPS    HA519334   9.417   0.971   7.736  0.0000  0.0000  0.0000
16999TPS    CA419335   9.362   1.179   7.723  0.0000  0.0000  0.0000
16999TPS    HA419336   9.381   1.185   7.616  0.0000  0.0000  0.0000
16999TPS    CA319337   9.315   1.291   7.793  0.0000  0.0000  0.0000
16999TPS    HA319338   9.298   1.384   7.739  0.0000  0.0000  0.0000
17000TPS    HA219339   2.265   2.189   1.450  0.0000  0.0000  0.0000
17000TPS    CA219340   2.292   2.281   1.501  0.0000  0.0000  0.0000
17000TPS    CA119341   2.317   2.400   1.431  0.0000  0.0000  0.0000
17000TPS     Si19342   2.317   2.400   1.245  0.0000  0.0000  0.0000
17000TPS    CA619343   2.358   2.514   1.503  0.0000  0.0000  0.0000
17000TPS    HH619344   2.373   2.610   1.454  0.0000  0.0000  0.0000
17000TPS    CA519345   2.381   2.507   1.642  0.0000  0.0000  0.0000
17000TPS    HA519346   2.413   2.594   1.697  0.0000  0.0000  0.0000
17000TPS    CA419347   2.358   2.386   1.710  0.0000  0.0000  0.0000
17000TPS    HA419348   2.377   2.380   1.817  0.0000  0.0000  0.0000
17000TPS    CA319349   2.311   2.274   1.640  0.0000  0.0000  0.0000
17000TPS    HA319350   2.294   2.181   1.694  0.0000  0.0000  0.0000
17001TPS    HA219351   0.199   5.535   1.517  0.0000  0.0000  0.0000
17001TPS    CA219352   0.226   5.627   1.568  0.0000  0.0000  0.0000
17001TPS    CA119353   0.251   5.746   1.498  0.0000  0.0000  0.0000
17001TPS     Si19354   0.251   5.746   1.312  0.0000  0.0000  0.0000
17001TPS    CA619355   0.292   5.860   1.570  0.0000  0.0000  0.0000
17001TPS    HH619356   0.307   5.956   1.521  0.0000  0.0000  0.0000
17001TPS    CA519357   0.315   5.853   1.709  0.0000  0.0000  0.0000
17001TPS    HA519358   0.347   5.940   1.764  0.0000  0.0000  0.0000
17001TPS    CA419359   0.292   5.732   1.777  0.0000  0.0000  0.0000
17001TPS    HA419360   0.311   5.726   1.884  0.0000  0.0000  0.0000
17001TPS    CA319361   0.245   5.620   1.707  0.0000  0.0000  0.0000
17001TPS    HA319362   0.228   5.527   1.761  0.0000  0.0000  0.0000
17002TPS    HA219363   3.026   2.781   1.365  0.0000  0.0000  0.0000
17002TPS    CA219364   3.053   2.873   1.416  0.0000  0.0000  0.0000
17002TPS    CA119365   3.078   2.992   1.346  0.0000  0.0000  0.0000
17002TPS     Si19366   3.078   2.992   1.160  0.0000  0.0000  0.0000
17002TPS    CA619367   3.119   3.106   1.418  0.0000  0.0000  0.0000
17002TPS    HH619368   3.134   3.202   1.369  0.0000  0.0000  0.0000
17002TPS    CA519369   3.142   3.099   1.557  0.0000  0.0000  0.0000
17002TPS    HA519370   3.174   3.186   1.612  0.0000  0.0000  0.0000
17002TPS    CA419371   3.119   2.978   1.625  0.0000  0.0000  0.0000
17002TPS    HA419372   3.138   2.972   1.732  0.0000  0.0000  0.0000
17002TPS    CA319373   3.072   2.866   1.555  0.0000  0.0000  0.0000
17002TPS    HA319374   3.055   2.773   1.609  0.0000  0.0000  0.0000
17003TPS    HA219375   1.674   7.945   8.133  0.0000  0.0000  0.0000
17003TPS    CA219376   1.701   7.853   8.082  0.0000  0.0000  0.0000
17003TPS    CA119377   1.726   7.734   8.152  0.0000  0.0000  0.0000
17003TPS     Si19378   1.726   7.734   8.338  0.0000  0.0000  0.0000
17003TPS    CA619379   1.767   7.620   8.080  0.0000  0.0000  0.0000
17003TPS    HH619380   1.782   7.524   8.129  0.0000  0.0000  0.0000
17003TPS    CA519381   1.790   7.627   7.941  0.0000  0.0000  0.0000
17003TPS    HA519382   1.822   7.540   7.886  0.0000  0.0000  0.0000
17003TPS    CA419383   1.767   7.748   7.873  0.0000  0.0000  0.0000
17003TPS    HA419384   1.786   7.754   7.766  0.0000  0.0000  0.0000
17003TPS    CA319385   1.720   7.860   7.943  0.0000  0.0000  0.0000
17003TPS    HA319386   1.703   7.953   7.889  0.0000  0.0000  0.0000
17004TPS    HA219387   2.135   6.585   8.149  0.0000  0.0000  0.0000
17004TPS    CA219388   2.162   6.493   8.098  0.0000  0.0000  0.0000
17004TPS    CA119389   2.187   6.374   8.168  0.0000  0.0000  0.0000
17004TPS     Si19390   2.187   6.374   8.354  0.0000  0.0000  0.0000
17004TPS    CA619391   2.228   6.260   8.096  0.0000  0.0000  0.0000
17004TPS    HH619392   2.243   6.164   8.145  0.0000  0.0000  0.0000
17004TPS    CA519393   2.251   6.267   7.957  0.0000  0.0000  0.0000
17004TPS    HA519394   2.283   6.180   7.902  0.0000  0.0000  0.0000
17004TPS    CA419395   2.228   6.388   7.889  0.0000  0.0000  0.0000
17004TPS    HA419396   2.247   6.394   7.782  0.0000  0.0000  0.0000
17004TPS    CA319397   2.181   6.500   7.959  0.0000  0.0000  0.0000
17004TPS    HA319398   2.164   6.593   7.905  0.0000  0.0000  0.0000
17005TPS    HA219399   1.534   0.152   1.527  0.0000  0.0000  0.0000
17005TPS    CA219400   1.561   0.244   1.578  0.0000  0.0000  0.0000
17005TPS    CA119401   1.586   0.363   1.508  0.0000  0.0000  0.0000
17005TPS     Si19402   1.586   0.363   1.322  0.0000  0.0000  0.0000
17005TPS    CA619403   1.627   0.477   1.580  0.0000  0.0000  0.0000
17005TPS    HH619404   1.642   0.573   1.531  0.0000  0.0000  0.0000
17005TPS    CA519405   1.650   0.470   1.719  0.0000  0.0000  0.0000
17005TPS    HA519406   1.682   0.557   1.774  0.0000  0.0000  0.0000
17005TPS    CA419407   1.627   0.349   1.787  0.0000  0.0000  0.0000
17005TPS    HA419408   1.646   0.343   1.894  0.0000  0.0000  0.0000
17005TPS    CA319409   1.580   0.237   1.717  0.0000  0.0000  0.0000
17005TPS    HA319410   1.563   0.144   1.771  0.0000  0.0000  0.0000
17006TPS    HA219411   2.074   7.718   1.613  0.0000  0.0000  0.0000
17006TPS    CA219412   2.101   7.810   1.664  0.0000  0.0000  0.0000
17006TPS    CA119413   2.126   7.929   1.594  0.0000  0.0000  0.0000
17006TPS     Si19414   2.126   7.929   1.408  0.0000  0.0000  0.0000
17006TPS    CA619415   2.167   8.043   1.666  0.0000  0.0000  0.0000
17006TPS    HH619416   2.182   8.139   1.617  0.0000  0.0000  0.0000
17006TPS    CA519417   2.190   8.036   1.805  0.0000  0.0000  0.0000
17006TPS    HA519418   2.222   8.123   1.860  0.0000  0.0000  0.0000
17006TPS    CA419419   2.167   7.915   1.873  0.0000  0.0000  0.0000
17006TPS    HA419420   2.186   7.909   1.980  0.0000  0.0000  0.0000
17006TPS    CA319421   2.120   7.803   1.803  0.0000  0.0000  0.0000
17006TPS    HA319422   2.103   7.710   1.857  0.0000  0.0000  0.0000
17007TPS    HA219423   8.867   2.987   8.129  0.0000  0.0000  0.0000
17007TPS    CA219424   8.894   2.895   8.078  0.0000  0.0000  0.0000
17007TPS    CA119425   8.919   2.776   8.148  0.0000  0.0000  0.0000
17007TPS     Si19426   8.919   2.776   8.334  0.0000  0.0000  0.0000
17007TPS    CA619427   8.960   2.662   8.076  0.0000  0.0000  0.0000
17007TPS    HH619428   8.975   2.566   8.125  0.0000  0.0000  0.0000
17007TPS    CA519429   8.983   2.669   7.937  0.0000  0.0000  0.0000
17007TPS    HA519430   9.015   2.582   7.882  0.0000  0.0000  0.0000
17007TPS    CA419431   8.960   2.790   7.869  0.0000  0.0000  0.0000
17007TPS    HA419432   8.979   2.796   7.762  0.0000  0.0000  0.0000
17007TPS    CA319433   8.913   2.902   7.939  0.0000  0.0000  0.0000
17007TPS    HA319434   8.896   2.995   7.885  0.0000  0.0000  0.0000
17008TPS    HA219435   5.073   0.287   1.452  0.0000  0.0000  0.0000
17008TPS    CA219436   5.100   0.379   1.503  0.0000  0.0000  0.0000
17008TPS    CA119437   5.125   0.498   1.433  0.0000  0.0000  0.0000
17008TPS     Si19438   5.125   0.498   1.247  0.0000  0.0000  0.0000
17008TPS    CA619439   5.166   0.612   1.505  0.0000  0.0000  0.0000
17008TPS    HH619440   5.181   0.708   1.456  0.0000  0.0000  0.0000
17008TPS    CA519441   5.189   0.605   1.644  0.0000  0.0000  0.0000
17008TPS    HA519442   5.221   0.692   1.699  0.0000  0.0000  0.0000
17008TPS    CA419443   5.166   0.484   1.712  0.0000  0.0000  0.0000
17008TPS    HA419444   5.185   0.478   1.819  0.0000  0.0000  0.0000
17008TPS    CA319445   5.119   0.372   1.642  0.0000  0.0000  0.0000
17008TPS    HA319446   5.102   0.279   1.696  0.0000  0.0000  0.0000
17009TPS    HA219447   6.104   3.117   8.065  0.0000  0.0000  0.0000
17009TPS    CA219448   6.131   3.025   8.014  0.0000  0.0000  0.0000
17009TPS    CA119449   6.156   2.906   8.084  0.0000  0.0000  0.0000
17009TPS     Si19450   6.156   2.906   8.270  0.0000  0.0000  0.0000
17009TPS    CA619451   6.197   2.792   8.012  0.0000  0.0000  0.0000
17009TPS    HH619452   6.212   2.696   8.061  0.0000  0.0000  0.0000
17009TPS    CA519453   6.220   2.799   7.873  0.0000  0.0000  0.0000
17009TPS    HA519454   6.252   2.712   7.818  0.0000  0.0000  0.0000
17009TPS    CA419455   6.197   2.920   7.805  0.0000  0.0000  0.0000
17009TPS    HA419456   6.216   2.926   7.698  0.0000  0.0000  0.0000
17009TPS    CA319457   6.150   3.032   7.875  0.0000  0.0000  0.0000
17009TPS    HA319458   6.133   3.125   7.821  0.0000  0.0000  0.0000
17010TPS    HA219459   7.151   9.393   8.139  0.0000  0.0000  0.0000
17010TPS    CA219460   7.178   9.301   8.088  0.0000  0.0000  0.0000
17010TPS    CA119461   7.203   9.182   8.158  0.0000  0.0000  0.0000
17010TPS     Si19462   7.203   9.182   8.344  0.0000  0.0000  0.0000
17010TPS    CA619463   7.244   9.068   8.086  0.0000  0.0000  0.0000
17010TPS    HH619464   7.259   8.972   8.135  0.0000  0.0000  0.0000
17010TPS    CA519465   7.267   9.075   7.947  0.0000  0.0000  0.0000
17010TPS    HA519466   7.299   8.988   7.892  0.0000  0.0000  0.0000
17010TPS    CA419467   7.244   9.196   7.879  0.0000  0.0000  0.0000
17010TPS    HA419468   7.263   9.202   7.772  0.0000  0.0000  0.0000
17010TPS    CA319469   7.197   9.308   7.949  0.0000  0.0000  0.0000
17010TPS    HA319470   7.180   9.401   7.895  0.0000  0.0000  0.0000
17011TPS    HA219471   1.020   4.256   8.184  0.0000  0.0000  0.0000
17011TPS    CA219472   0.981   4.169   8.133  0.0000  0.0000  0.0000
17011TPS    CA119473   0.924   4.061   8.203  0.0000  0.0000  0.0000
17011TPS     Si19474   0.924   4.061   8.389  0.0000  0.0000  0.0000
17011TPS    CA619475   0.882   3.947   8.131  0.0000  0.0000  0.0000
17011TPS    HH619476   0.832   3.864   8.180  0.0000  0.0000  0.0000
17011TPS    CA519477   0.904   3.939   7.992  0.0000  0.0000  0.0000
17011TPS    HA519478   0.873   3.850   7.937  0.0000  0.0000  0.0000
17011TPS    CA419479   0.964   4.045   7.924  0.0000  0.0000  0.0000
17011TPS    HA419480   0.983   4.038   7.817  0.0000  0.0000  0.0000
17011TPS    CA319481   1.000   4.161   7.994  0.0000  0.0000  0.0000
17011TPS    HA319482   1.047   4.244   7.940  0.0000  0.0000  0.0000
17012TPS    HA219483   5.334   0.443   1.528  0.0000  0.0000  0.0000
17012TPS    CA219484   5.361   0.535   1.579  0.0000  0.0000  0.0000
17012TPS    CA119485   5.386   0.654   1.509  0.0000  0.0000  0.0000
17012TPS     Si19486   5.386   0.654   1.323  0.0000  0.0000  0.0000
17012TPS    CA619487   5.427   0.768   1.581  0.0000  0.0000  0.0000
17012TPS    HH619488   5.442   0.864   1.532  0.0000  0.0000  0.0000
17012TPS    CA519489   5.450   0.761   1.720  0.0000  0.0000  0.0000
17012TPS    HA519490   5.482   0.848   1.775  0.0000  0.0000  0.0000
17012TPS    CA419491   5.427   0.640   1.788  0.0000  0.0000  0.0000
17012TPS    HA419492   5.446   0.634   1.895  0.0000  0.0000  0.0000
17012TPS    CA319493   5.380   0.528   1.718  0.0000  0.0000  0.0000
17012TPS    HA319494   5.363   0.435   1.772  0.0000  0.0000  0.0000
17013TPS    HA219495   2.184  -0.013   1.445  0.0000  0.0000  0.0000
17013TPS    CA219496   2.211   0.079   1.496  0.0000  0.0000  0.0000
17013TPS    CA119497   2.236   0.198   1.426  0.0000  0.0000  0.0000
17013TPS     Si19498   2.236   0.198   1.240  0.0000  0.0000  0.0000
17013TPS    CA619499   2.277   0.312   1.498  0.0000  0.0000  0.0000
17013TPS    HH619500   2.292   0.408   1.449  0.0000  0.0000  0.0000
17013TPS    CA519501   2.300   0.305   1.637  0.0000  0.0000  0.0000
17013TPS    HA519502   2.332   0.392   1.692  0.0000  0.0000  0.0000
17013TPS    CA419503   2.277   0.184   1.705  0.0000  0.0000  0.0000
17013TPS    HA419504   2.296   0.178   1.812  0.0000  0.0000  0.0000
17013TPS    CA319505   2.230   0.072   1.635  0.0000  0.0000  0.0000
17013TPS    HA319506   2.213  -0.021   1.689  0.0000  0.0000  0.0000
17014TPS    HA219507   3.322   8.684   1.561  0.0000  0.0000  0.0000
17014TPS    CA219508   3.349   8.776   1.612  0.0000  0.0000  0.0000
17014TPS    CA119509   3.374   8.895   1.542  0.0000  0.0000  0.0000
17014TPS     Si19510   3.374   8.895   1.356  0.0000  0.0000  0.0000
17014TPS    CA619511   3.415   9.009   1.614  0.0000  0.0000  0.0000
17014TPS    HH619512   3.430   9.105   1.565  0.0000  0.0000  0.0000
17014TPS    CA519513   3.438   9.002   1.753  0.0000  0.0000  0.0000
17014TPS    HA519514   3.470   9.089   1.808  0.0000  0.0000  0.0000
17014TPS    CA419515   3.415   8.881   1.821  0.0000  0.0000  0.0000
17014TPS    HA419516   3.434   8.875   1.928  0.0000  0.0000  0.0000
17014TPS    CA319517   3.368   8.769   1.751  0.0000  0.0000  0.0000
17014TPS    HA319518   3.351   8.676   1.805  0.0000  0.0000  0.0000
17015TPS    HA219519   0.982   1.189   8.098  0.0000  0.0000  0.0000
17015TPS    CA219520   1.009   1.097   8.047  0.0000  0.0000  0.0000
17015TPS    CA119521   1.034   0.978   8.117  0.0000  0.0000  0.0000
17015TPS     Si19522   1.034   0.978   8.303  0.0000  0.0000  0.0000
17015TPS    CA619523   1.075   0.864   8.045  0.0000  0.0000  0.0000
17015TPS    HH619524   1.090   0.768   8.094  0.0000  0.0000  0.0000
17015TPS    CA519525   1.098   0.871   7.906  0.0000  0.0000  0.0000
17015TPS    HA519526   1.130   0.784   7.851  0.0000  0.0000  0.0000
17015TPS    CA419527   1.075   0.992   7.838  0.0000  0.0000  0.0000
17015TPS    HA419528   1.094   0.998   7.731  0.0000  0.0000  0.0000
17015TPS    CA319529   1.028   1.104   7.908  0.0000  0.0000  0.0000
17015TPS    HA319530   1.011   1.197   7.854  0.0000  0.0000  0.0000
17016TPS    HA219531   4.632   0.315   1.423  0.0000  0.0000  0.0000
17016TPS    CA219532   4.659   0.407   1.474  0.0000  0.0000  0.0000
17016TPS    CA119533   4.684   0.526   1.404  0.0000  0.0000  0.0000
17016TPS     Si19534   4.684   0.526   1.218  0.0000  0.0000  0.0000
17016TPS    CA619535   4.725   0.640   1.476  0.0000  0.0000  0.0000
17016TPS    HH619536   4.740   0.736   1.427  0.0000  0.0000  0.0000
17016TPS    CA519537   4.748   0.633   1.615  0.0000  0.0000  0.0000
17016TPS    HA519538   4.780   0.720   1.670  0.0000  0.0000  0.0000
17016TPS    CA419539   4.725   0.512   1.683  0.0000  0.0000  0.0000
17016TPS    HA419540   4.744   0.506   1.790  0.0000  0.0000  0.0000
17016TPS    CA319541   4.678   0.400   1.613  0.0000  0.0000  0.0000
17016TPS    HA319542   4.661   0.307   1.667  0.0000  0.0000  0.0000
17017TPS    HA219543   5.525   8.831   7.955  0.0000  0.0000  0.0000
17017TPS    CA219544   5.552   8.739   7.904  0.0000  0.0000  0.0000
17017TPS    CA119545   5.577   8.620   7.974  0.0000  0.0000  0.0000
17017TPS     Si19546   5.577   8.620   8.160  0.0000  0.0000  0.0000
17017TPS    CA619547   5.618   8.506   7.902  0.0000  0.0000  0.0000
17017TPS    HH619548   5.633   8.410   7.951  0.0000  0.0000  0.0000
17017TPS    CA519549   5.641   8.513   7.763  0.0000  0.0000  0.0000
17017TPS    HA519550   5.673   8.426   7.708  0.0000  0.0000  0.0000
17017TPS    CA419551   5.618   8.634   7.695  0.0000  0.0000  0.0000
17017TPS    HA419552   5.637   8.640   7.588  0.0000  0.0000  0.0000
17017TPS    CA319553   5.571   8.746   7.765  0.0000  0.0000  0.0000
17017TPS    HA319554   5.554   8.839   7.711  0.0000  0.0000  0.0000
17018TPS    HA219555   8.636   4.745   1.485  0.0000  0.0000  0.0000
17018TPS    CA219556   8.663   4.837   1.536  0.0000  0.0000  0.0000
17018TPS    CA119557   8.688   4.956   1.466  0.0000  0.0000  0.0000
17018TPS     Si19558   8.688   4.956   1.280  0.0000  0.0000  0.0000
17018TPS    CA619559   8.729   5.070   1.538  0.0000  0.0000  0.0000
17018TPS    HH619560   8.744   5.166   1.489  0.0000  0.0000  0.0000
17018TPS    CA519561   8.752   5.063   1.677  0.0000  0.0000  0.0000
17018TPS    HA519562   8.784   5.150   1.732  0.0000  0.0000  0.0000
17018TPS    CA419563   8.729   4.942   1.745  0.0000  0.0000  0.0000
17018TPS    HA419564   8.748   4.936   1.852  0.0000  0.0000  0.0000
17018TPS    CA319565   8.682   4.830   1.675  0.0000  0.0000  0.0000
17018TPS    HA319566   8.665   4.737   1.729  0.0000  0.0000  0.0000
17019TPS    HA219567   5.545   0.895   1.605  0.0000  0.0000  0.0000
17019TPS    CA219568   5.572   0.987   1.656  0.0000  0.0000  0.0000
17019TPS    CA119569   5.597   1.106   1.586  0.0000  0.0000  0.0000
17019TPS     Si19570   5.597   1.106   1.400  0.0000  0.0000  0.0000
17019TPS    CA619571   5.638   1.220   1.658  0.0000  0.0000  0.0000
17019TPS    HH619572   5.653   1.316   1.609  0.0000  0.0000  0.0000
17019TPS    CA519573   5.661   1.213   1.797  0.0000  0.0000  0.0000
17019TPS    HA519574   5.693   1.300   1.852  0.0000  0.0000  0.0000
17019TPS    CA419575   5.638   1.092   1.865  0.0000  0.0000  0.0000
17019TPS    HA419576   5.657   1.086   1.972  0.0000  0.0000  0.0000
17019TPS    CA319577   5.591   0.980   1.795  0.0000  0.0000  0.0000
17019TPS    HA319578   5.574   0.887   1.849  0.0000  0.0000  0.0000
17020TPS    HA219579   1.283   0.567   1.588  0.0000  0.0000  0.0000
17020TPS    CA219580   1.310   0.659   1.639  0.0000  0.0000  0.0000
17020TPS    CA119581   1.335   0.778   1.569  0.0000  0.0000  0.0000
17020TPS     Si19582   1.335   0.778   1.383  0.0000  0.0000  0.0000
17020TPS    CA619583   1.376   0.892   1.641  0.0000  0.0000  0.0000
17020TPS    HH619584   1.391   0.988   1.592  0.0000  0.0000  0.0000
17020TPS    CA519585   1.399   0.885   1.780  0.0000  0.0000  0.0000
17020TPS    HA519586   1.431   0.972   1.835  0.0000  0.0000  0.0000
17020TPS    CA419587   1.376   0.764   1.848  0.0000  0.0000  0.0000
17020TPS    HA419588   1.395   0.758   1.955  0.0000  0.0000  0.0000
17020TPS    CA319589   1.329   0.652   1.778  0.0000  0.0000  0.0000
17020TPS    HA319590   1.312   0.559   1.832  0.0000  0.0000  0.0000
17021TPS    HA219591  -0.019   0.701   1.608  0.0000  0.0000  0.0000
17021TPS    CA219592   0.008   0.793   1.659  0.0000  0.0000  0.0000
17021TPS    CA119593   0.033   0.912   1.589  0.0000  0.0000  0.0000
17021TPS     Si19594   0.033   0.912   1.403  0.0000  0.0000  0.0000
17021TPS    CA619595   0.074   1.026   1.661  0.0000  0.0000  0.0000
17021TPS    HH619596   0.089   1.122   1.612  0.0000  0.0000  0.0000
17021TPS    CA519597   0.097   1.019   1.800  0.0000  0.0000  0.0000
17021TPS    HA519598   0.129   1.106   1.855  0.0000  0.0000  0.0000
17021TPS    CA419599   0.074   0.898   1.868  0.0000  0.0000  0.0000
17021TPS    HA419600   0.093   0.892   1.975  0.0000  0.0000  0.0000
17021TPS    CA319601   0.027   0.786   1.798  0.0000  0.0000  0.0000
17021TPS    HA319602   0.010   0.693   1.852  0.0000  0.0000  0.0000
17022TPS    HA219603   8.365   4.349   8.092  0.0000  0.0000  0.0000
17022TPS    CA219604   8.359   4.254   8.041  0.0000  0.0000  0.0000
17022TPS    CA119605   8.342   4.133   8.111  0.0000  0.0000  0.0000
17022TPS     Si19606   8.342   4.133   8.297  0.0000  0.0000  0.0000
17022TPS    CA619607   8.342   4.012   8.039  0.0000  0.0000  0.0000
17022TPS    HH619608   8.323   3.917   8.088  0.0000  0.0000  0.0000
17022TPS    CA519609   8.365   4.011   7.900  0.0000  0.0000  0.0000
17022TPS    HA519610   8.366   3.918   7.845  0.0000  0.0000  0.0000
17022TPS    CA419611   8.385   4.132   7.832  0.0000  0.0000  0.0000
17022TPS    HA419612   8.405   4.131   7.725  0.0000  0.0000  0.0000
17022TPS    CA319613   8.379   4.253   7.902  0.0000  0.0000  0.0000
17022TPS    HA319614   8.395   4.346   7.848  0.0000  0.0000  0.0000
17023TPS    HA219615   7.359   0.506   8.042  0.0000  0.0000  0.0000
17023TPS    CA219616   7.386   0.414   7.991  0.0000  0.0000  0.0000
17023TPS    CA119617   7.411   0.295   8.061  0.0000  0.0000  0.0000
17023TPS     Si19618   7.411   0.295   8.247  0.0000  0.0000  0.0000
17023TPS    CA619619   7.452   0.181   7.989  0.0000  0.0000  0.0000
17023TPS    HH619620   7.467   0.085   8.038  0.0000  0.0000  0.0000
17023TPS    CA519621   7.475   0.188   7.850  0.0000  0.0000  0.0000
17023TPS    HA519622   7.507   0.101   7.795  0.0000  0.0000  0.0000
17023TPS    CA419623   7.452   0.309   7.782  0.0000  0.0000  0.0000
17023TPS    HA419624   7.471   0.315   7.675  0.0000  0.0000  0.0000
17023TPS    CA319625   7.405   0.421   7.852  0.0000  0.0000  0.0000
17023TPS    HA319626   7.388   0.514   7.798  0.0000  0.0000  0.0000
17024TPS    HA219627   6.133   6.301   8.124  0.0000  0.0000  0.0000
17024TPS    CA219628   6.160   6.209   8.073  0.0000  0.0000  0.0000
17024TPS    CA119629   6.185   6.090   8.143  0.0000  0.0000  0.0000
17024TPS     Si19630   6.185   6.090   8.329  0.0000  0.0000  0.0000
17024TPS    CA619631   6.226   5.976   8.071  0.0000  0.0000  0.0000
17024TPS    HH619632   6.241   5.880   8.120  0.0000  0.0000  0.0000
17024TPS    CA519633   6.249   5.983   7.932  0.0000  0.0000  0.0000
17024TPS    HA519634   6.281   5.896   7.877  0.0000  0.0000  0.0000
17024TPS    CA419635   6.226   6.104   7.864  0.0000  0.0000  0.0000
17024TPS    HA419636   6.245   6.110   7.757  0.0000  0.0000  0.0000
17024TPS    CA319637   6.179   6.216   7.934  0.0000  0.0000  0.0000
17024TPS    HA319638   6.162   6.309   7.880  0.0000  0.0000  0.0000
17025TPS    HA219639   1.037   0.078   1.427  0.0000  0.0000  0.0000
17025TPS    CA219640   1.064   0.170   1.478  0.0000  0.0000  0.0000
17025TPS    CA119641   1.089   0.289   1.408  0.0000  0.0000  0.0000
17025TPS     Si19642   1.089   0.289   1.222  0.0000  0.0000  0.0000
17025TPS    CA619643   1.130   0.403   1.480  0.0000  0.0000  0.0000
17025TPS    HH619644   1.145   0.499   1.431  0.0000  0.0000  0.0000
17025TPS    CA519645   1.153   0.396   1.619  0.0000  0.0000  0.0000
17025TPS    HA519646   1.185   0.483   1.674  0.0000  0.0000  0.0000
17025TPS    CA419647   1.130   0.275   1.687  0.0000  0.0000  0.0000
17025TPS    HA419648   1.149   0.269   1.794  0.0000  0.0000  0.0000
17025TPS    CA319649   1.083   0.163   1.617  0.0000  0.0000  0.0000
17025TPS    HA319650   1.066   0.070   1.671  0.0000  0.0000  0.0000
17026TPS    HA219651   6.473   9.787   8.073  0.0000  0.0000  0.0000
17026TPS    CA219652   6.500   9.695   8.022  0.0000  0.0000  0.0000
17026TPS    CA119653   6.525   9.576   8.092  0.0000  0.0000  0.0000
17026TPS     Si19654   6.525   9.576   8.278  0.0000  0.0000  0.0000
17026TPS    CA619655   6.566   9.462   8.020  0.0000  0.0000  0.0000
17026TPS    HH619656   6.581   9.366   8.069  0.0000  0.0000  0.0000
17026TPS    CA519657   6.589   9.469   7.881  0.0000  0.0000  0.0000
17026TPS    HA519658   6.621   9.382   7.826  0.0000  0.0000  0.0000
17026TPS    CA419659   6.566   9.590   7.813  0.0000  0.0000  0.0000
17026TPS    HA419660   6.585   9.596   7.706  0.0000  0.0000  0.0000
17026TPS    CA319661   6.519   9.702   7.883  0.0000  0.0000  0.0000
17026TPS    HA319662   6.502   9.795   7.829  0.0000  0.0000  0.0000
17027TPS    HA219663   4.632   3.927   1.442  0.0000  0.0000  0.0000
17027TPS    CA219664   4.659   4.019   1.493  0.0000  0.0000  0.0000
17027TPS    CA119665   4.684   4.138   1.423  0.0000  0.0000  0.0000
17027TPS     Si19666   4.684   4.138   1.237  0.0000  0.0000  0.0000
17027TPS    CA619667   4.725   4.252   1.495  0.0000  0.0000  0.0000
17027TPS    HH619668   4.740   4.348   1.446  0.0000  0.0000  0.0000
17027TPS    CA519669   4.748   4.245   1.634  0.0000  0.0000  0.0000
17027TPS    HA519670   4.780   4.332   1.689  0.0000  0.0000  0.0000
17027TPS    CA419671   4.725   4.124   1.702  0.0000  0.0000  0.0000
17027TPS    HA419672   4.744   4.118   1.809  0.0000  0.0000  0.0000
17027TPS    CA319673   4.678   4.012   1.632  0.0000  0.0000  0.0000
17027TPS    HA319674   4.661   3.919   1.686  0.0000  0.0000  0.0000
17028SL     Si119675   3.718   6.537   1.343  0.0000  0.0000  0.0000
17028SL      O119676   3.718   6.537   1.507  0.0000  0.0000  0.0000
17028SL      H119677   3.718   6.537   1.605  0.0000  0.0000  0.0000
17029SL     Si119678   1.123   2.669   1.409  0.0000  0.0000  0.0000
17029SL      O119679   1.123   2.669   1.573  0.0000  0.0000  0.0000
17029SL      H119680   1.123   2.669   1.671  0.0000  0.0000  0.0000
17030SL     Si119681   4.726   7.237   1.343  0.0000  0.0000  0.0000
17030SL      O119682   4.726   7.237   1.507  0.0000  0.0000  0.0000
17030SL      H119683   4.726   7.237   1.605  0.0000  0.0000  0.0000
17031SL     Si119684   3.552   1.314   8.304  0.0000  0.0000  0.0000
17031SL      O119685   3.552   1.314   8.140  0.0000  0.0000  0.0000
17031SL      H119686   3.552   1.314   8.042  0.0000  0.0000  0.0000
17032SL     Si119687   9.430   6.976   8.282  0.0000  0.0000  0.0000
17032SL      O119688   9.430   6.976   8.118  0.0000  0.0000  0.0000
17032SL      H119689   9.430   6.976   8.020  0.0000  0.0000  0.0000
17033SL     Si119690   7.538   2.498   1.289  0.0000  0.0000  0.0000
17033SL      O119691   7.538   2.498   1.453  0.0000  0.0000  0.0000
17033SL      H119692   7.538   2.498   1.551  0.0000  0.0000  0.0000
17034SL     Si119693   8.515   8.288   1.221  0.0000  0.0000  0.0000
17034SL      O119694   8.515   8.288   1.385  0.0000  0.0000  0.0000
17034SL      H119695   8.515   8.288   1.483  0.0000  0.0000  0.0000
17035SL     Si119696   1.135   5.049   1.234  0.0000  0.0000  0.0000
17035SL      O119697   1.135   5.049   1.398  0.0000  0.0000  0.0000
17035SL      H119698   1.135   5.049   1.496  0.0000  0.0000  0.0000
17036SL     Si119699   3.663   0.258   1.308  0.0000  0.0000  0.0000
17036SL      O119700   3.663   0.258   1.472  0.0000  0.0000  0.0000
17036SL      H119701   3.663   0.258   1.570  0.0000  0.0000  0.0000
17037SL     Si119702   0.499   5.186   8.406  0.0000  0.0000  0.0000
17037SL      O119703   0.499   5.186   8.242  0.0000  0.0000  0.0000
17037SL      H119704   0.499   5.186   8.144  0.0000  0.0000  0.0000
17038SL     Si119705   0.116   8.023   1.369  0.0000  0.0000  0.0000
17038SL      O119706   0.116   8.023   1.533  0.0000  0.0000  0.0000
17038SL      H119707   0.116   8.023   1.631  0.0000  0.0000  0.0000
17039SL     Si119708   9.383   4.752   8.420  0.0000  0.0000  0.0000
17039SL      O119709   9.383   4.752   8.256  0.0000  0.0000  0.0000
17039SL      H119710   9.383   4.752   8.158  0.0000  0.0000  0.0000
17040SL     Si119711   6.343   5.045   1.199  0.0000  0.0000  0.0000
17040SL      O119712   6.343   5.045   1.363  0.0000  0.0000  0.0000
17040SL      H119713   6.343   5.045   1.461  0.0000  0.0000  0.0000
17041SL     Si119714   3.235   5.766   1.359  0.0000  0.0000  0.0000
17041SL      O119715   3.235   5.766   1.523  0.0000  0.0000  0.0000
17041SL      H119716   3.235   5.766   1.621  0.0000  0.0000  0.0000
17042SL     Si119717   0.975   1.598   1.243  0.0000  0.0000  0.0000
17042SL      O119718   0.975   1.598   1.407  0.0000  0.0000  0.0000
17042SL      H119719   0.975   1.598   1.505  0.0000  0.0000  0.0000
17043SL     Si119720   3.193   9.419   1.400  0.0000  0.0000  0.0000
17043SL      O119721   3.193   9.419   1.564  0.0000  0.0000  0.0000
17043SL      H119722   3.193   9.419   1.662  0.0000  0.0000  0.0000
17044SL     Si119723   0.052   5.527   1.226  0.0000  0.0000  0.0000
17044SL      O119724   0.052   5.527   1.390  0.0000  0.0000  0.0000
17044SL      H119725   0.052   5.527   1.488  0.0000  0.0000  0.0000
17045SL     Si119726   0.256   4.722   1.286  0.0000  0.0000  0.0000
17045SL      O119727   0.256   4.722   1.450  0.0000  0.0000  0.0000
17045SL      H119728   0.256   4.722   1.548  0.0000  0.0000  0.0000
17046SL     Si119729   9.327   3.907   8.385  0.0000  0.0000  0.0000
17046SL      O119730   9.327   3.907   8.221  0.0000  0.0000  0.0000
17046SL      H119731   9.327   3.907   8.123  0.0000  0.0000  0.0000
17047SL     Si119732   8.335   8.604   8.371  0.0000  0.0000  0.0000
17047SL      O119733   8.335   8.604   8.207  0.0000  0.0000  0.0000
17047SL      H119734   8.335   8.604   8.109  0.0000  0.0000  0.0000
17048SL     Si119735   2.750   0.786   1.096  0.0000  0.0000  0.0000
17048SL      O119736   2.750   0.786   1.260  0.0000  0.0000  0.0000
17048SL      H119737   2.750   0.786   1.358  0.0000  0.0000  0.0000
17049SL     Si119738   4.401   4.282   8.247  0.0000  0.0000  0.0000
17049SL      O119739   4.401   4.282   8.083  0.0000  0.0000  0.0000
17049SL      H119740   4.401   4.282   7.985  0.0000  0.0000  0.0000
17050SL     Si119741   7.095   7.792   8.211  0.0000  0.0000  0.0000
17050SL      O119742   7.095   7.792   8.047  0.0000  0.0000  0.0000
17050SL      H119743   7.095   7.792   7.949  0.0000  0.0000  0.0000
17051SL     Si119744   6.910   7.180   8.342  0.0000  0.0000  0.0000
17051SL      O119745   6.910   7.180   8.178  0.0000  0.0000  0.0000
17051SL      H119746   6.910   7.180   8.080  0.0000  0.0000  0.0000
17052SL     Si119747   1.959   8.617   1.254  0.0000  0.0000  0.0000
17052SL      O119748   1.959   8.617   1.418  0.0000  0.0000  0.0000
17052SL      H119749   1.959   8.617   1.516  0.0000  0.0000  0.0000
17053SL     Si119750   4.581   3.309   1.271  0.0000  0.0000  0.0000
17053SL      O119751   4.581   3.309   1.435  0.0000  0.0000  0.0000
17053SL      H119752   4.581   3.309   1.533  0.0000  0.0000  0.0000
17054SL     Si119753   8.727   2.819   1.324  0.0000  0.0000  0.0000
17054SL      O119754   8.727   2.819   1.488  0.0000  0.0000  0.0000
17054SL      H119755   8.727   2.819   1.586  0.0000  0.0000  0.0000
17055SL     Si119756   8.283   8.135   8.334  0.0000  0.0000  0.0000
17055SL      O119757   8.283   8.135   8.170  0.0000  0.0000  0.0000
17055SL      H119758   8.283   8.135   8.072  0.0000  0.0000  0.0000
17056SL     Si119759   2.034   1.722   1.327  0.0000  0.0000  0.0000
17056SL      O119760   2.034   1.722   1.491  0.0000  0.0000  0.0000
17056SL      H119761   2.034   1.722   1.589  0.0000  0.0000  0.0000
17057SL     Si119762   9.173   8.795   8.385  0.0000  0.0000  0.0000
17057SL      O119763   9.173   8.795   8.221  0.0000  0.0000  0.0000
17057SL      H119764   9.173   8.795   8.123  0.0000  0.0000  0.0000
17058SL     Si119765   8.041   2.058   8.281  0.0000  0.0000  0.0000
17058SL      O119766   8.041   2.058   8.117  0.0000  0.0000  0.0000
17058SL      H119767   8.041   2.058   8.019  0.0000  0.0000  0.0000
17059SL     Si119768   4.294   8.985   8.394  0.0000  0.0000  0.0000
17059SL      O119769   4.294   8.985   8.230  0.0000  0.0000  0.0000
17059SL      H119770   4.294   8.985   8.132  0.0000  0.0000  0.0000
17060SL     Si119771   2.353   8.588   8.201  0.0000  0.0000  0.0000
17060SL      O119772   2.353   8.588   8.037  0.0000  0.0000  0.0000
17060SL      H119773   2.353   8.588   7.939  0.0000  0.0000  0.0000
17061SL     Si119774   0.763   8.666   1.401  0.0000  0.0000  0.0000
17061SL      O119775   0.763   8.666   1.565  0.0000  0.0000  0.0000
17061SL      H119776   0.763   8.666   1.663  0.0000  0.0000  0.0000
17062SL     Si119777   8.280   3.615   8.228  0.0000  0.0000  0.0000
17062SL      O119778   8.280   3.615   8.064  0.0000  0.0000  0.0000
17062SL      H119779   8.280   3.615   7.966  0.0000  0.0000  0.0000
17063SL     Si119780   1.667   3.282   1.222  0.0000  0.0000  0.0000
17063SL      O119781   1.667   3.282   1.386  0.0000  0.0000  0.0000
17063SL      H119782   1.667   3.282   1.484  0.0000  0.0000  0.0000
17064SL     Si119783   3.730   3.597   1.387  0.0000  0.0000  0.0000
17064SL      O119784   3.730   3.597   1.551  0.0000  0.0000  0.0000
17064SL      H119785   3.730   3.597   1.649  0.0000  0.0000  0.0000
17065SL     Si119786   1.842   2.589   8.311  0.0000  0.0000  0.0000
17065SL      O119787   1.842   2.589   8.147  0.0000  0.0000  0.0000
17065SL      H119788   1.842   2.589   8.049  0.0000  0.0000  0.0000
17066SL     Si119789   5.213   5.622   8.348  0.0000  0.0000  0.0000
17066SL      O119790   5.213   5.622   8.184  0.0000  0.0000  0.0000
17066SL      H119791   5.213   5.622   8.086  0.0000  0.0000  0.0000
17067SL     Si119792   7.533   3.409   8.222  0.0000  0.0000  0.0000
17067SL      O119793   7.533   3.409   8.058  0.0000  0.0000  0.0000
17067SL      H119794   7.533   3.409   7.960  0.0000  0.0000  0.0000
17068SL     Si119795   2.656   5.805   8.313  0.0000  0.0000  0.0000
17068SL      O119796   2.656   5.805   8.149  0.0000  0.0000  0.0000
17068SL      H119797   2.656   5.805   8.051  0.0000  0.0000  0.0000
17069SL     Si119798   9.148   1.692   8.385  0.0000  0.0000  0.0000
17069SL      O119799   9.148   1.692   8.221  0.0000  0.0000  0.0000
17069SL      H119800   9.148   1.692   8.123  0.0000  0.0000  0.0000
17070SL     Si119801   6.269   8.711   1.269  0.0000  0.0000  0.0000
17070SL      O119802   6.269   8.711   1.433  0.0000  0.0000  0.0000
17070SL      H119803   6.269   8.711   1.531  0.0000  0.0000  0.0000
17071SL     Si119804   4.053   3.640   8.351  0.0000  0.0000  0.0000
17071SL      O119805   4.053   3.640   8.187  0.0000  0.0000  0.0000
17071SL      H119806   4.053   3.640   8.089  0.0000  0.0000  0.0000
17072SL     Si119807   7.011   1.647   8.198  0.0000  0.0000  0.0000
17072SL      O119808   7.011   1.647   8.034  0.0000  0.0000  0.0000
17072SL      H119809   7.011   1.647   7.936  0.0000  0.0000  0.0000
17073SL     Si119810   1.070   5.356   1.179  0.0000  0.0000  0.0000
17073SL      O119811   1.070   5.356   1.343  0.0000  0.0000  0.0000
17073SL      H119812   1.070   5.356   1.441  0.0000  0.0000  0.0000
17074SL     Si119813   1.904   0.005   8.271  0.0000  0.0000  0.0000
17074SL      O119814   1.904   0.005   8.107  0.0000  0.0000  0.0000
17074SL      H119815   1.904   0.005   8.009  0.0000  0.0000  0.0000
17075SL     Si119816   4.875   8.431   1.368  0.0000  0.0000  0.0000
17075SL      O119817   4.875   8.431   1.532  0.0000  0.0000  0.0000
17075SL      H119818   4.875   8.431   1.630  0.0000  0.0000  0.0000
17076SL     Si119819   9.160   5.634   8.352  0.0000  0.0000  0.0000
17076SL      O119820   9.160   5.634   8.188  0.0000  0.0000  0.0000
17076SL      H119821   9.160   5.634   8.090  0.0000  0.0000  0.0000
17077SL     Si119822   6.157   8.692   8.364  0.0000  0.0000  0.0000
17077SL      O119823   6.157   8.692   8.200  0.0000  0.0000  0.0000
17077SL      H119824   6.157   8.692   8.102  0.0000  0.0000  0.0000
17078SL     Si119825   1.872   4.907   8.322  0.0000  0.0000  0.0000
17078SL      O119826   1.872   4.907   8.158  0.0000  0.0000  0.0000
17078SL      H119827   1.872   4.907   8.060  0.0000  0.0000  0.0000
17079SL     Si119828   2.971   5.594   1.391  0.0000  0.0000  0.0000
17079SL      O119829   2.971   5.594   1.555  0.0000  0.0000  0.0000
17079SL      H119830   2.971   5.594   1.653  0.0000  0.0000  0.0000
17080SL     Si119831   4.962   1.124   8.481  0.0000  0.0000  0.0000
17080SL      O119832   4.962   1.124   8.317  0.0000  0.0000  0.0000
17080SL      H119833   4.962   1.124   8.219  0.0000  0.0000  0.0000
17081SL     Si119834   0.223   6.976   8.200  0.0000  0.0000  0.0000
17081SL      O119835   0.223   6.976   8.036  0.0000  0.0000  0.0000
17081SL      H119836   0.223   6.976   7.938  0.0000  0.0000  0.0000
17082SL     Si119837   4.066   1.931   1.160  0.0000  0.0000  0.0000
17082SL      O119838   4.066   1.931   1.324  0.0000  0.0000  0.0000
17082SL      H119839   4.066   1.931   1.422  0.0000  0.0000  0.0000
17083SL     Si119840   2.313   1.760   8.423  0.0000  0.0000  0.0000
17083SL      O119841   2.313   1.760   8.259  0.0000  0.0000  0.0000
17083SL      H119842   2.313   1.760   8.161  0.0000  0.0000  0.0000
17084SL     Si119843   0.946   2.594   8.283  0.0000  0.0000  0.0000
17084SL      O119844   0.946   2.594   8.119  0.0000  0.0000  0.0000
17084SL      H119845   0.946   2.594   8.021  0.0000  0.0000  0.0000
17085SL     Si119846   4.668   2.544   1.244  0.0000  0.0000  0.0000
17085SL      O119847   4.668   2.544   1.408  0.0000  0.0000  0.0000
17085SL      H119848   4.668   2.544   1.506  0.0000  0.0000  0.0000
17086SL     Si119849   3.834   2.901   1.366  0.0000  0.0000  0.0000
17086SL      O119850   3.834   2.901   1.530  0.0000  0.0000  0.0000
17086SL      H119851   3.834   2.901   1.628  0.0000  0.0000  0.0000
17087SL     Si119852   7.730   3.489   1.360  0.0000  0.0000  0.0000
17087SL      O119853   7.730   3.489   1.524  0.0000  0.0000  0.0000
17087SL      H119854   7.730   3.489   1.622  0.0000  0.0000  0.0000
17088SL     Si119855   2.014   8.158   1.247  0.0000  0.0000  0.0000
17088SL      O119856   2.014   8.158   1.411  0.0000  0.0000  0.0000
17088SL      H119857   2.014   8.158   1.509  0.0000  0.0000  0.0000
17089SL     Si119858   3.546   0.849   1.164  0.0000  0.0000  0.0000
17089SL      O119859   3.546   0.849   1.328  0.0000  0.0000  0.0000
17089SL      H119860   3.546   0.849   1.426  0.0000  0.0000  0.0000
17090SL     Si119861   3.149   9.103   1.377  0.0000  0.0000  0.0000
17090SL      O119862   3.149   9.103   1.541  0.0000  0.0000  0.0000
17090SL      H119863   3.149   9.103   1.639  0.0000  0.0000  0.0000
17091SL     Si119864   5.127   5.673   1.316  0.0000  0.0000  0.0000
17091SL      O119865   5.127   5.673   1.480  0.0000  0.0000  0.0000
17091SL      H119866   5.127   5.673   1.578  0.0000  0.0000  0.0000
17092SL     Si119867   1.403   9.220   8.243  0.0000  0.0000  0.0000
17092SL      O119868   1.403   9.220   8.079  0.0000  0.0000  0.0000
17092SL      H119869   1.403   9.220   7.981  0.0000  0.0000  0.0000
17093SL     Si119870   8.825   3.693   8.406  0.0000  0.0000  0.0000
17093SL      O119871   8.825   3.693   8.242  0.0000  0.0000  0.0000
17093SL      H119872   8.825   3.693   8.144  0.0000  0.0000  0.0000
17094SL     Si119873   4.850   4.396   8.262  0.0000  0.0000  0.0000
17094SL      O119874   4.850   4.396   8.098  0.0000  0.0000  0.0000
17094SL      H119875   4.850   4.396   8.000  0.0000  0.0000  0.0000
17095SL     Si119876   0.993   8.428   8.328  0.0000  0.0000  0.0000
17095SL      O119877   0.993   8.428   8.164  0.0000  0.0000  0.0000
17095SL      H119878   0.993   8.428   8.066  0.0000  0.0000  0.0000
17096SL     Si119879   2.704   1.299   1.145  0.0000  0.0000  0.0000
17096SL      O119880   2.704   1.299   1.309  0.0000  0.0000  0.0000
17096SL      H119881   2.704   1.299   1.407  0.0000  0.0000  0.0000
17097SL     Si119882   7.686   5.272   1.336  0.0000  0.0000  0.0000
17097SL      O119883   7.686   5.272   1.500  0.0000  0.0000  0.0000
17097SL      H119884   7.686   5.272   1.598  0.0000  0.0000  0.0000
17098SL     Si119885   2.168   5.346   8.339  0.0000  0.0000  0.0000
17098SL      O119886   2.168   5.346   8.175  0.0000  0.0000  0.0000
17098SL      H119887   2.168   5.346   8.077  0.0000  0.0000  0.0000
17099SL     Si119888   6.120   7.459   1.282  0.0000  0.0000  0.0000
17099SL      O119889   6.120   7.459   1.446  0.0000  0.0000  0.0000
17099SL      H119890   6.120   7.459   1.544  0.0000  0.0000  0.0000
17100SL     Si119891   2.405   7.164   8.412  0.0000  0.0000  0.0000
17100SL      O119892   2.405   7.164   8.248  0.0000  0.0000  0.0000
17100SL      H119893   2.405   7.164   8.150  0.0000  0.0000  0.0000
17101SL     Si119894   2.388   7.067   1.407  0.0000  0.0000  0.0000
17101SL      O119895   2.388   7.067   1.571  0.0000  0.0000  0.0000
17101SL      H119896   2.388   7.067   1.669  0.0000  0.0000  0.0000
17102SL     Si119897   5.888   4.981   1.354  0.0000  0.0000  0.0000
17102SL      O119898   5.888   4.981   1.518  0.0000  0.0000  0.0000
17102SL      H119899   5.888   4.981   1.616  0.0000  0.0000  0.0000
17103SL     Si119900   3.491   8.232   1.344  0.0000  0.0000  0.0000
17103SL      O119901   3.491   8.232   1.508  0.0000  0.0000  0.0000
17103SL      H119902   3.491   8.232   1.606  0.0000  0.0000  0.0000
17104SL     Si119903   1.114   1.861   8.255  0.0000  0.0000  0.0000
17104SL      O119904   1.114   1.861   8.091  0.0000  0.0000  0.0000
17104SL      H119905   1.114   1.861   7.993  0.0000  0.0000  0.0000
17105SL     Si119906   3.718   7.823   8.295  0.0000  0.0000  0.0000
17105SL      O119907   3.718   7.823   8.131  0.0000  0.0000  0.0000
17105SL      H119908   3.718   7.823   8.033  0.0000  0.0000  0.0000
17106SL     Si119909   2.494   6.364   8.403  0.0000  0.0000  0.0000
17106SL      O119910   2.494   6.364   8.239  0.0000  0.0000  0.0000
17106SL      H119911   2.494   6.364   8.141  0.0000  0.0000  0.0000
17107SL     Si119912   5.644   1.498   8.251  0.0000  0.0000  0.0000
17107SL      O119913   5.644   1.498   8.087  0.0000  0.0000  0.0000
17107SL      H119914   5.644   1.498   7.989  0.0000  0.0000  0.0000
17108SL     Si119915   2.845   8.088   8.370  0.0000  0.0000  0.0000
17108SL      O119916   2.845   8.088   8.206  0.0000  0.0000  0.0000
17108SL      H119917   2.845   8.088   8.108  0.0000  0.0000  0.0000
17109SL     Si119918   2.887   2.068   1.358  0.0000  0.0000  0.0000
17109SL      O119919   2.887   2.068   1.522  0.0000  0.0000  0.0000
17109SL      H119920   2.887   2.068   1.620  0.0000  0.0000  0.0000
17110SL     Si119921   1.143   3.626   8.287  0.0000  0.0000  0.0000
17110SL      O119922   1.143   3.626   8.123  0.0000  0.0000  0.0000
17110SL      H119923   1.143   3.626   8.025  0.0000  0.0000  0.0000
17111SL     Si119924   9.581   1.091   8.335  0.0000  0.0000  0.0000
17111SL      O119925   9.581   1.091   8.171  0.0000  0.0000  0.0000
17111SL      H119926   9.581   1.091   8.073  0.0000  0.0000  0.0000
17112SL     Si119927   5.262   0.008   8.265  0.0000  0.0000  0.0000
17112SL      O119928   5.262   0.008   8.101  0.0000  0.0000  0.0000
17112SL      H119929   5.262   0.008   8.003  0.0000  0.0000  0.0000
17113SL     Si119930   2.146   6.828   8.272  0.0000  0.0000  0.0000
17113SL      O119931   2.146   6.828   8.108  0.0000  0.0000  0.0000
17113SL      H119932   2.146   6.828   8.010  0.0000  0.0000  0.0000
17114SL     Si119933   2.201   2.983   1.361  0.0000  0.0000  0.0000
17114SL      O119934   2.201   2.983   1.525  0.0000  0.0000  0.0000
17114SL      H119935   2.201   2.983   1.623  0.0000  0.0000  0.0000
17115SL     Si119936   8.614   8.547   8.262  0.0000  0.0000  0.0000
17115SL      O119937   8.614   8.547   8.098  0.0000  0.0000  0.0000
17115SL      H119938   8.614   8.547   8.000  0.0000  0.0000  0.0000
17116SL     Si119939   8.964   0.659   1.211  0.0000  0.0000  0.0000
17116SL      O119940   8.964   0.659   1.375  0.0000  0.0000  0.0000
17116SL      H119941   8.964   0.659   1.473  0.0000  0.0000  0.0000
17117SL     Si119942   2.663   2.070   8.380  0.0000  0.0000  0.0000
17117SL      O119943   2.663   2.070   8.216  0.0000  0.0000  0.0000
17117SL      H119944   2.663   2.070   8.118  0.0000  0.0000  0.0000
17118SL     Si119945   3.672   4.486   8.167  0.0000  0.0000  0.0000
17118SL      O119946   3.672   4.486   8.003  0.0000  0.0000  0.0000
17118SL      H119947   3.672   4.486   7.905  0.0000  0.0000  0.0000
17119SL     Si119948   6.102   9.574   8.405  0.0000  0.0000  0.0000
17119SL      O119949   6.102   9.574   8.241  0.0000  0.0000  0.0000
17119SL      H119950   6.102   9.574   8.143  0.0000  0.0000  0.0000
17120SL     Si119951   6.155   0.980   1.314  0.0000  0.0000  0.0000
17120SL      O119952   6.155   0.980   1.478  0.0000  0.0000  0.0000
17120SL      H119953   6.155   0.980   1.576  0.0000  0.0000  0.0000
17121SL     Si119954   9.147   4.356   8.304  0.0000  0.0000  0.0000
17121SL      O119955   9.147   4.356   8.140  0.0000  0.0000  0.0000
17121SL      H119956   9.147   4.356   8.042  0.0000  0.0000  0.0000
17122SL     Si119957   5.007   7.349   8.404  0.0000  0.0000  0.0000
17122SL      O119958   5.007   7.349   8.240  0.0000  0.0000  0.0000
17122SL      H119959   5.007   7.349   8.142  0.0000  0.0000  0.0000
17123SL     Si119960   9.308   9.267   8.361  0.0000  0.0000  0.0000
17123SL      O119961   9.308   9.267   8.197  0.0000  0.0000  0.0000
17123SL      H119962   9.308   9.267   8.099  0.0000  0.0000  0.0000
17124SL     Si119963   3.453   3.195   1.127  0.0000  0.0000  0.0000
17124SL      O119964   3.453   3.195   1.291  0.0000  0.0000  0.0000
17124SL      H119965   3.453   3.195   1.389  0.0000  0.0000  0.0000
17125SL     Si119966   9.076   4.642   1.464  0.0000  0.0000  0.0000
17125SL      O119967   9.076   4.642   1.628  0.0000  0.0000  0.0000
17125SL      H119968   9.076   4.642   1.726  0.0000  0.0000  0.0000
17126SL     Si119969   1.356   3.310   1.268  0.0000  0.0000  0.0000
17126SL      O119970   1.356   3.310   1.432  0.0000  0.0000  0.0000
17126SL      H119971   1.356   3.310   1.530  0.0000  0.0000  0.0000
17127SL     Si119972   4.890   5.044   1.074  0.0000  0.0000  0.0000
17127SL      O119973   4.890   5.044   1.238  0.0000  0.0000  0.0000
17127SL      H119974   4.890   5.044   1.336  0.0000  0.0000  0.0000
17128SL     Si119975   6.253   3.056   1.241  0.0000  0.0000  0.0000
17128SL      O119976   6.253   3.056   1.405  0.0000  0.0000  0.0000
17128SL      H119977   6.253   3.056   1.503  0.0000  0.0000  0.0000
17129SL     Si119978   3.937   6.952   8.345  0.0000  0.0000  0.0000
17129SL      O119979   3.937   6.952   8.181  0.0000  0.0000  0.0000
17129SL      H119980   3.937   6.952   8.083  0.0000  0.0000  0.0000
17130SL     Si119981   4.222   5.671   8.327  0.0000  0.0000  0.0000
17130SL      O119982   4.222   5.671   8.163  0.0000  0.0000  0.0000
17130SL      H119983   4.222   5.671   8.065  0.0000  0.0000  0.0000
17131SL     Si119984   5.012   8.527   8.238  0.0000  0.0000  0.0000
17131SL      O119985   5.012   8.527   8.074  0.0000  0.0000  0.0000
17131SL      H119986   5.012   8.527   7.976  0.0000  0.0000  0.0000
17132SL     Si119987   6.530   7.740   1.360  0.0000  0.0000  0.0000
17132SL      O119988   6.530   7.740   1.524  0.0000  0.0000  0.0000
17132SL      H119989   6.530   7.740   1.622  0.0000  0.0000  0.0000
17133SL     Si119990   6.921   9.254   1.339  0.0000  0.0000  0.0000
17133SL      O119991   6.921   9.254   1.503  0.0000  0.0000  0.0000
17133SL      H119992   6.921   9.254   1.601  0.0000  0.0000  0.0000
17134SL     Si119993   0.326   3.056   8.357  0.0000  0.0000  0.0000
17134SL      O119994   0.326   3.056   8.193  0.0000  0.0000  0.0000
17134SL      H119995   0.326   3.056   8.095  0.0000  0.0000  0.0000
17135SL     Si119996   0.112   2.557   8.280  0.0000  0.0000  0.0000
17135SL      O119997   0.112   2.557   8.116  0.0000  0.0000  0.0000
17135SL      H119998   0.112   2.557   8.018  0.0000  0.0000  0.0000
17136SL     Si119999   7.915   5.703   1.225  0.0000  0.0000  0.0000
17136SL      O120000   7.915   5.703   1.389  0.0000  0.0000  0.0000
17136SL      H120001   7.915   5.703   1.487  0.0000  0.0000  0.0000
17137SL     Si120002   0.192   3.500   8.281  0.0000  0.0000  0.0000
17137SL      O120003   0.192   3.500   8.117  0.0000  0.0000  0.0000
17137SL      H120004   0.192   3.500   8.019  0.0000  0.0000  0.0000
17138SL     Si120005   0.833   3.503   1.166  0.0000  0.0000  0.0000
17138SL      O120006   0.833   3.503   1.330  0.0000  0.0000  0.0000
17138SL      H120007   0.833   3.503   1.428  0.0000  0.0000  0.0000
17139SL     Si120008   7.594   8.553   8.206  0.0000  0.0000  0.0000
17139SL      O120009   7.594   8.553   8.042  0.0000  0.0000  0.0000
17139SL      H120010   7.594   8.553   7.944  0.0000  0.0000  0.0000
17140SL     Si120011   1.906   5.453   8.254  0.0000  0.0000  0.0000
17140SL      O120012   1.906   5.453   8.090  0.0000  0.0000  0.0000
17140SL      H120013   1.906   5.453   7.992  0.0000  0.0000  0.0000
17141SL     Si120014   2.157   5.040   8.314  0.0000  0.0000  0.0000
17141SL      O120015   2.157   5.040   8.150  0.0000  0.0000  0.0000
17141SL      H120016   2.157   5.040   8.052  0.0000  0.0000  0.0000
17142SL     Si120017   6.938   0.231   1.225  0.0000  0.0000  0.0000
17142SL      O120018   6.938   0.231   1.389  0.0000  0.0000  0.0000
17142SL      H120019   6.938   0.231   1.487  0.0000  0.0000  0.0000
17143SL     Si120020   6.208   0.329   1.144  0.0000  0.0000  0.0000
17143SL      O120021   6.208   0.329   1.308  0.0000  0.0000  0.0000
17143SL      H120022   6.208   0.329   1.406  0.0000  0.0000  0.0000
17144SL     Si120023   1.374   7.283   8.355  0.0000  0.0000  0.0000
17144SL      O120024   1.374   7.283   8.191  0.0000  0.0000  0.0000
17144SL      H120025   1.374   7.283   8.093  0.0000  0.0000  0.0000
17145SL     Si120026   7.470   8.721   1.156  0.0000  0.0000  0.0000
17145SL      O120027   7.470   8.721   1.320  0.0000  0.0000  0.0000
17145SL      H120028   7.470   8.721   1.418  0.0000  0.0000  0.0000
17146SL     Si120029   4.537   1.605   8.324  0.0000  0.0000  0.0000
17146SL      O120030   4.537   1.605   8.160  0.0000  0.0000  0.0000
17146SL      H120031   4.537   1.605   8.062  0.0000  0.0000  0.0000
17147SL     Si120032   3.030   7.855   8.249  0.0000  0.0000  0.0000
17147SL      O120033   3.030   7.855   8.085  0.0000  0.0000  0.0000
17147SL      H120034   3.030   7.855   7.987  0.0000  0.0000  0.0000
17148SL     Si120035   1.456   5.987   1.198  0.0000  0.0000  0.0000
17148SL      O120036   1.456   5.987   1.362  0.0000  0.0000  0.0000
17148SL      H120037   1.456   5.987   1.460  0.0000  0.0000  0.0000
17149SL     Si120038   8.520   4.407   1.208  0.0000  0.0000  0.0000
17149SL      O120039   8.520   4.407   1.372  0.0000  0.0000  0.0000
17149SL      H120040   8.520   4.407   1.470  0.0000  0.0000  0.0000
17150SL     Si120041   7.742   5.745   8.365  0.0000  0.0000  0.0000
17150SL      O120042   7.742   5.745   8.201  0.0000  0.0000  0.0000
17150SL      H120043   7.742   5.745   8.103  0.0000  0.0000  0.0000
17151SL     Si120044   0.393   1.148   8.335  0.0000  0.0000  0.0000
17151SL      O120045   0.393   1.148   8.171  0.0000  0.0000  0.0000
17151SL      H120046   0.393   1.148   8.073  0.0000  0.0000  0.0000
17152SL     Si120047   2.729   8.499   1.374  0.0000  0.0000  0.0000
17152SL      O120048   2.729   8.499   1.538  0.0000  0.0000  0.0000
17152SL      H120049   2.729   8.499   1.636  0.0000  0.0000  0.0000
17153SL     Si120050   3.629   5.181   8.372  0.0000  0.0000  0.0000
17153SL      O120051   3.629   5.181   8.208  0.0000  0.0000  0.0000
17153SL      H120052   3.629   5.181   8.110  0.0000  0.0000  0.0000
17154SL     Si120053   7.628   0.007   8.494  0.0000  0.0000  0.0000
17154SL      O120054   7.628   0.007   8.330  0.0000  0.0000  0.0000
17154SL      H120055   7.628   0.007   8.232  0.0000  0.0000  0.0000
17155SL     Si120056   5.953   9.024   1.280  0.0000  0.0000  0.0000
17155SL      O120057   5.953   9.024   1.444  0.0000  0.0000  0.0000
17155SL      H120058   5.953   9.024   1.542  0.0000  0.0000  0.0000
17156SL     Si120059   2.564   0.440   8.343  0.0000  0.0000  0.0000
17156SL      O120060   2.564   0.440   8.179  0.0000  0.0000  0.0000
17156SL      H120061   2.564   0.440   8.081  0.0000  0.0000  0.0000
17157SL     Si120062   5.588   8.273   1.324  0.0000  0.0000  0.0000
17157SL      O120063   5.588   8.273   1.488  0.0000  0.0000  0.0000
17157SL      H120064   5.588   8.273   1.586  0.0000  0.0000  0.0000
17158SL     Si120065   9.512   4.570   1.305  0.0000  0.0000  0.0000
17158SL      O120066   9.512   4.570   1.469  0.0000  0.0000  0.0000
17158SL      H120067   9.512   4.570   1.567  0.0000  0.0000  0.0000
17159SL     Si120068   6.301   2.157   1.326  0.0000  0.0000  0.0000
17159SL      O120069   6.301   2.157   1.490  0.0000  0.0000  0.0000
17159SL      H120070   6.301   2.157   1.588  0.0000  0.0000  0.0000
17160SL     Si120071   5.738   3.443   8.196  0.0000  0.0000  0.0000
17160SL      O120072   5.738   3.443   8.032  0.0000  0.0000  0.0000
17160SL      H120073   5.738   3.443   7.934  0.0000  0.0000  0.0000
17161SL     Si120074   0.044   9.001   8.327  0.0000  0.0000  0.0000
17161SL      O120075   0.044   9.001   8.163  0.0000  0.0000  0.0000
17161SL      H120076   0.044   9.001   8.065  0.0000  0.0000  0.0000
17162SL     Si120077   8.968   5.872   8.390  0.0000  0.0000  0.0000
17162SL      O120078   8.968   5.872   8.226  0.0000  0.0000  0.0000
17162SL      H120079   8.968   5.872   8.128  0.0000  0.0000  0.0000
17163SL     Si120080   2.929   1.916   8.392  0.0000  0.0000  0.0000
17163SL      O120081   2.929   1.916   8.228  0.0000  0.0000  0.0000
17163SL      H120082   2.929   1.916   8.130  0.0000  0.0000  0.0000
17164SL     Si120083   4.816   3.177   8.262  0.0000  0.0000  0.0000
17164SL      O120084   4.816   3.177   8.098  0.0000  0.0000  0.0000
17164SL      H120085   4.816   3.177   8.000  0.0000  0.0000  0.0000
17165SL     Si120086   2.168   0.171   8.251  0.0000  0.0000  0.0000
17165SL      O120087   2.168   0.171   8.087  0.0000  0.0000  0.0000
17165SL      H120088   2.168   0.171   7.989  0.0000  0.0000  0.0000
17166SL     Si120089   2.802   0.979   8.257  0.0000  0.0000  0.0000
17166SL      O120090   2.802   0.979   8.093  0.0000  0.0000  0.0000
17166SL      H120091   2.802   0.979   7.995  0.0000  0.0000  0.0000
17167SL     Si120092   6.461   8.680   8.285  0.0000  0.0000  0.0000
17167SL      O120093   6.461   8.680   8.121  0.0000  0.0000  0.0000
17167SL      H120094   6.461   8.680   8.023  0.0000  0.0000  0.0000
17168SL     Si120095   8.897   0.933   1.337  0.0000  0.0000  0.0000
17168SL      O120096   8.897   0.933   1.501  0.0000  0.0000  0.0000
17168SL      H120097   8.897   0.933   1.599  0.0000  0.0000  0.0000
17169SL     Si120098   7.195   0.018   8.364  0.0000  0.0000  0.0000
17169SL      O120099   7.195   0.018   8.200  0.0000  0.0000  0.0000
17169SL      H120100   7.195   0.018   8.102  0.0000  0.0000  0.0000
17170SL     Si120101   8.954   3.039   1.279  0.0000  0.0000  0.0000
17170SL      O120102   8.954   3.039   1.443  0.0000  0.0000  0.0000
17170SL      H120103   8.954   3.039   1.541  0.0000  0.0000  0.0000
17171SL     Si120104   3.256   7.023   1.322  0.0000  0.0000  0.0000
17171SL      O120105   3.256   7.023   1.486  0.0000  0.0000  0.0000
17171SL      H120106   3.256   7.023   1.584  0.0000  0.0000  0.0000
17172SL     Si120107   6.876   4.737   8.437  0.0000  0.0000  0.0000
17172SL      O120108   6.876   4.737   8.273  0.0000  0.0000  0.0000
17172SL      H120109   6.876   4.737   8.175  0.0000  0.0000  0.0000
17173SL     Si120110   2.931   6.318   8.304  0.0000  0.0000  0.0000
17173SL      O120111   2.931   6.318   8.140  0.0000  0.0000  0.0000
17173SL      H120112   2.931   6.318   8.042  0.0000  0.0000  0.0000
17174SL     Si120113   0.316   7.723   1.161  0.0000  0.0000  0.0000
17174SL      O120114   0.316   7.723   1.325  0.0000  0.0000  0.0000
17174SL      H120115   0.316   7.723   1.423  0.0000  0.0000  0.0000
17175SL     Si120116   7.647   6.414   1.297  0.0000  0.0000  0.0000
17175SL      O120117   7.647   6.414   1.461  0.0000  0.0000  0.0000
17175SL      H120118   7.647   6.414   1.559  0.0000  0.0000  0.0000
17176SL     Si120119   8.713   0.093   1.275  0.0000  0.0000  0.0000
17176SL      O120120   8.713   0.093   1.439  0.0000  0.0000  0.0000
17176SL      H120121   8.713   0.093   1.537  0.0000  0.0000  0.0000
17177SL     Si120122   1.171   8.731   1.238  0.0000  0.0000  0.0000
17177SL      O120123   1.171   8.731   1.402  0.0000  0.0000  0.0000
17177SL      H120124   1.171   8.731   1.500  0.0000  0.0000  0.0000
17178SL     Si120125   5.948   4.677   1.318  0.0000  0.0000  0.0000
17178SL      O120126   5.948   4.677   1.482  0.0000  0.0000  0.0000
17178SL      H120127   5.948   4.677   1.580  0.0000  0.0000  0.0000
17179SL     Si120128   4.563   6.091   8.265  0.0000  0.0000  0.0000
17179SL      O120129   4.563   6.091   8.101  0.0000  0.0000  0.0000
17179SL      H120130   4.563   6.091   8.003  0.0000  0.0000  0.0000
17180SL     Si120131   4.799   7.697   8.299  0.0000  0.0000  0.0000
17180SL      O120132   4.799   7.697   8.135  0.0000  0.0000  0.0000
17180SL      H120133   4.799   7.697   8.037  0.0000  0.0000  0.0000
17181SL     Si120134   3.791   1.198   1.413  0.0000  0.0000  0.0000
17181SL      O120135   3.791   1.198   1.577  0.0000  0.0000  0.0000
17181SL      H120136   3.791   1.198   1.675  0.0000  0.0000  0.0000
17182SL     Si120137   8.774   3.302   1.237  0.0000  0.0000  0.0000
17182SL      O120138   8.774   3.302   1.401  0.0000  0.0000  0.0000
17182SL      H120139   8.774   3.302   1.499  0.0000  0.0000  0.0000
17183SL     Si120140   3.943   6.332   1.264  0.0000  0.0000  0.0000
17183SL      O120141   3.943   6.332   1.428  0.0000  0.0000  0.0000
17183SL      H120142   3.943   6.332   1.526  0.0000  0.0000  0.0000
17184SL     Si120143   8.373   9.337   1.377  0.0000  0.0000  0.0000
17184SL      O120144   8.373   9.337   1.541  0.0000  0.0000  0.0000
17184SL      H120145   8.373   9.337   1.639  0.0000  0.0000  0.0000
17185SL     Si120146   3.632   7.553   8.382  0.0000  0.0000  0.0000
17185SL      O120147   3.632   7.553   8.218  0.0000  0.0000  0.0000
17185SL      H120148   3.632   7.553   8.120  0.0000  0.0000  0.0000
17186SL     Si120149   4.982   4.653   8.371  0.0000  0.0000  0.0000
17186SL      O120150   4.982   4.653   8.207  0.0000  0.0000  0.0000
17186SL      H120151   4.982   4.653   8.109  0.0000  0.0000  0.0000
17187SL     Si120152   9.121   7.007   1.236  0.0000  0.0000  0.0000
17187SL      O120153   9.121   7.007   1.400  0.0000  0.0000  0.0000
17187SL      H120154   9.121   7.007   1.498  0.0000  0.0000  0.0000
17188SL     Si120155   9.004   0.171   1.290  0.0000  0.0000  0.0000
17188SL      O120156   9.004   0.171   1.454  0.0000  0.0000  0.0000
17188SL      H120157   9.004   0.171   1.552  0.0000  0.0000  0.0000
17189SL     Si120158   6.702   1.604   8.241  0.0000  0.0000  0.0000
17189SL      O120159   6.702   1.604   8.077  0.0000  0.0000  0.0000
17189SL      H120160   6.702   1.604   7.979  0.0000  0.0000  0.0000
17190SL     Si120161   4.989   2.336   8.250  0.0000  0.0000  0.0000
17190SL      O120162   4.989   2.336   8.086  0.0000  0.0000  0.0000
17190SL      H120163   4.989   2.336   7.988  0.0000  0.0000  0.0000
17191SL     Si120164   0.819   1.888   8.370  0.0000  0.0000  0.0000
17191SL      O120165   0.819   1.888   8.206  0.0000  0.0000  0.0000
17191SL      H120166   0.819   1.888   8.108  0.0000  0.0000  0.0000
17192SL     Si120167   9.103   7.972   8.389  0.0000  0.0000  0.0000
17192SL      O120168   9.103   7.972   8.225  0.0000  0.0000  0.0000
17192SL      H120169   9.103   7.972   8.127  0.0000  0.0000  0.0000
17193SL     Si120170   6.473   4.759   1.228  0.0000  0.0000  0.0000
17193SL      O120171   6.473   4.759   1.392  0.0000  0.0000  0.0000
17193SL      H120172   6.473   4.759   1.490  0.0000  0.0000  0.0000
17194SL     Si120173   3.737   8.406   8.291  0.0000  0.0000  0.0000
17194SL      O120174   3.737   8.406   8.127  0.0000  0.0000  0.0000
17194SL      H120175   3.737   8.406   8.029  0.0000  0.0000  0.0000
17195SL     Si120176   4.006   1.414   1.385  0.0000  0.0000  0.0000
17195SL      O120177   4.006   1.414   1.549  0.0000  0.0000  0.0000
17195SL      H120178   4.006   1.414   1.647  0.0000  0.0000  0.0000
17196SL     Si120179   4.293   7.838   1.363  0.0000  0.0000  0.0000
17196SL      O120180   4.293   7.838   1.527  0.0000  0.0000  0.0000
17196SL      H120181   4.293   7.838   1.625  0.0000  0.0000  0.0000
17197SL     Si120182   5.192   5.377   1.357  0.0000  0.0000  0.0000
17197SL      O120183   5.192   5.377   1.521  0.0000  0.0000  0.0000
17197SL      H120184   5.192   5.377   1.619  0.0000  0.0000  0.0000
17198SL     Si120185   1.714   8.061   1.205  0.0000  0.0000  0.0000
17198SL      O120186   1.714   8.061   1.369  0.0000  0.0000  0.0000
17198SL      H120187   1.714   8.061   1.467  0.0000  0.0000  0.0000
17199SL     Si120188   5.100   9.576   1.286  0.0000  0.0000  0.0000
17199SL      O120189   5.100   9.576   1.450  0.0000  0.0000  0.0000
17199SL      H120190   5.100   9.576   1.548  0.0000  0.0000  0.0000
17200SL     Si120191   9.277   8.424   1.279  0.0000  0.0000  0.0000
17200SL      O120192   9.277   8.424   1.443  0.0000  0.0000  0.0000
17200SL      H120193   9.277   8.424   1.541  0.0000  0.0000  0.0000
17201SL     Si120194   3.637   3.461   8.214  0.0000  0.0000  0.0000
17201SL      O120195   3.637   3.461   8.050  0.0000  0.0000  0.0000
17201SL      H120196   3.637   3.461   7.952  0.0000  0.0000  0.0000
17202SL     Si120197   4.421   1.549   1.293  0.0000  0.0000  0.0000
17202SL      O120198   4.421   1.549   1.457  0.0000  0.0000  0.0000
17202SL      H120199   4.421   1.549   1.555  0.0000  0.0000  0.0000
17203SL     Si120200   4.134   0.844   8.236  0.0000  0.0000  0.0000
17203SL      O120201   4.134   0.844   8.072  0.0000  0.0000  0.0000
17203SL      H120202   4.134   0.844   7.974  0.0000  0.0000  0.0000
17204SL     Si120203   7.308   4.789   1.237  0.0000  0.0000  0.0000
17204SL      O120204   7.308   4.789   1.401  0.0000  0.0000  0.0000
17204SL      H120205   7.308   4.789   1.499  0.0000  0.0000  0.0000
17205SL     Si120206   8.318   5.326   1.368  0.0000  0.0000  0.0000
17205SL      O120207   8.318   5.326   1.532  0.0000  0.0000  0.0000
17205SL      H120208   8.318   5.326   1.630  0.0000  0.0000  0.0000
17206SL     Si120209   7.506   8.260   8.241  0.0000  0.0000  0.0000
17206SL      O120210   7.506   8.260   8.077  0.0000  0.0000  0.0000
17206SL      H120211   7.506   8.260   7.979  0.0000  0.0000  0.0000
17207SL     Si120212   5.597   7.480   1.358  0.0000  0.0000  0.0000
17207SL      O120213   5.597   7.480   1.522  0.0000  0.0000  0.0000
17207SL      H120214   5.597   7.480   1.620  0.0000  0.0000  0.0000
17208SL     Si120215   1.342   1.291   8.320  0.0000  0.0000  0.0000
17208SL      O120216   1.342   1.291   8.156  0.0000  0.0000  0.0000
17208SL      H120217   1.342   1.291   8.058  0.0000  0.0000  0.0000
17209SL     Si120218   4.720   1.531   1.391  0.0000  0.0000  0.0000
17209SL      O120219   4.720   1.531   1.555  0.0000  0.0000  0.0000
17209SL      H120220   4.720   1.531   1.653  0.0000  0.0000  0.0000
17210SL     Si120221   7.584   7.836   1.408  0.0000  0.0000  0.0000
17210SL      O120222   7.584   7.836   1.572  0.0000  0.0000  0.0000
17210SL      H120223   7.584   7.836   1.670  0.0000  0.0000  0.0000
17211SL     Si120224   7.615   5.781   1.222  0.0000  0.0000  0.0000
17211SL      O120225   7.615   5.781   1.386  0.0000  0.0000  0.0000
17211SL      H120226   7.615   5.781   1.484  0.0000  0.0000  0.0000
17212SL     Si120227   7.093   1.923   8.285  0.0000  0.0000  0.0000
17212SL      O120228   7.093   1.923   8.121  0.0000  0.0000  0.0000
17212SL      H120229   7.093   1.923   8.023  0.0000  0.0000  0.0000
17213SL     Si120230   5.167   7.241   1.328  0.0000  0.0000  0.0000
17213SL      O120231   5.167   7.241   1.492  0.0000  0.0000  0.0000
17213SL      H120232   5.167   7.241   1.590  0.0000  0.0000  0.0000
17214SL     Si120233   7.124   1.788   1.047  0.0000  0.0000  0.0000
17214SL      O120234   7.124   1.788   1.211  0.0000  0.0000  0.0000
17214SL      H120235   7.124   1.788   1.309  0.0000  0.0000  0.0000
17215SL     Si120236   3.829   3.827   8.249  0.0000  0.0000  0.0000
17215SL      O120237   3.829   3.827   8.085  0.0000  0.0000  0.0000
17215SL      H120238   3.829   3.827   7.987  0.0000  0.0000  0.0000
17216SL     Si120239   9.510   6.687   8.226  0.0000  0.0000  0.0000
17216SL      O120240   9.510   6.687   8.062  0.0000  0.0000  0.0000
17216SL      H120241   9.510   6.687   7.964  0.0000  0.0000  0.0000
17217SL     Si120242   0.321   7.455   1.278  0.0000  0.0000  0.0000
17217SL      O120243   0.321   7.455   1.442  0.0000  0.0000  0.0000
17217SL      H120244   0.321   7.455   1.540  0.0000  0.0000  0.0000
17218SL     Si120245   3.812   0.527   1.399  0.0000  0.0000  0.0000
17218SL      O120246   3.812   0.527   1.563  0.0000  0.0000  0.0000
17218SL      H120247   3.812   0.527   1.661  0.0000  0.0000  0.0000
17219SL     Si120248   4.234   3.893   8.341  0.0000  0.0000  0.0000
17219SL      O120249   4.234   3.893   8.177  0.0000  0.0000  0.0000
17219SL      H120250   4.234   3.893   8.079  0.0000  0.0000  0.0000
17220SL     Si120251   1.368   8.076   8.473  0.0000  0.0000  0.0000
17220SL      O120252   1.368   8.076   8.309  0.0000  0.0000  0.0000
17220SL      H120253   1.368   8.076   8.211  0.0000  0.0000  0.0000
17221SL     Si120254   7.632   1.083   1.173  0.0000  0.0000  0.0000
17221SL      O120255   7.632   1.083   1.337  0.0000  0.0000  0.0000
17221SL      H120256   7.632   1.083   1.435  0.0000  0.0000  0.0000
17222SL     Si120257   6.126   5.844   1.277  0.0000  0.0000  0.0000
17222SL      O120258   6.126   5.844   1.441  0.0000  0.0000  0.0000
17222SL      H120259   6.126   5.844   1.539  0.0000  0.0000  0.0000
17223SL     Si120260   7.688   8.903   1.235  0.0000  0.0000  0.0000
17223SL      O120261   7.688   8.903   1.399  0.0000  0.0000  0.0000
17223SL      H120262   7.688   8.903   1.497  0.0000  0.0000  0.0000
17224SL     Si120263   2.502   0.962   8.240  0.0000  0.0000  0.0000
17224SL      O120264   2.502   0.962   8.076  0.0000  0.0000  0.0000
17224SL      H120265   2.502   0.962   7.978  0.0000  0.0000  0.0000
17225SL     Si120266   4.383   5.254   1.151  0.0000  0.0000  0.0000
17225SL      O120267   4.383   5.254   1.315  0.0000  0.0000  0.0000
17225SL      H120268   4.383   5.254   1.413  0.0000  0.0000  0.0000
17226SL     Si120269   7.149   8.425   1.311  0.0000  0.0000  0.0000
17226SL      O120270   7.149   8.425   1.475  0.0000  0.0000  0.0000
17226SL      H120271   7.149   8.425   1.573  0.0000  0.0000  0.0000
17227SL     Si120272   6.228   9.163   1.306  0.0000  0.0000  0.0000
17227SL      O120273   6.228   9.163   1.470  0.0000  0.0000  0.0000
17227SL      H120274   6.228   9.163   1.568  0.0000  0.0000  0.0000
17228SL     Si120275   1.471   1.031   1.328  0.0000  0.0000  0.0000
17228SL      O120276   1.471   1.031   1.492  0.0000  0.0000  0.0000
17228SL      H120277   1.471   1.031   1.590  0.0000  0.0000  0.0000
17229SL     Si120278   3.860   9.357   1.300  0.0000  0.0000  0.0000
17229SL      O120279   3.860   9.357   1.464  0.0000  0.0000  0.0000
17229SL      H120280   3.860   9.357   1.562  0.0000  0.0000  0.0000
17230SL     Si120281   8.231   4.423   8.213  0.0000  0.0000  0.0000
17230SL      O120282   8.231   4.423   8.049  0.0000  0.0000  0.0000
17230SL      H120283   8.231   4.423   7.951  0.0000  0.0000  0.0000
17231SL     Si120284   2.288   1.574   1.227  0.0000  0.0000  0.0000
17231SL      O120285   2.288   1.574   1.391  0.0000  0.0000  0.0000
17231SL      H120286   2.288   1.574   1.489  0.0000  0.0000  0.0000
17232SL     Si120287   6.497   4.204   1.374  0.0000  0.0000  0.0000
17232SL      O120288   6.497   4.204   1.538  0.0000  0.0000  0.0000
17232SL      H120289   6.497   4.204   1.636  0.0000  0.0000  0.0000
17233SL     Si120290   3.890   4.785   8.413  0.0000  0.0000  0.0000
17233SL      O120291   3.890   4.785   8.249  0.0000  0.0000  0.0000
17233SL      H120292   3.890   4.785   8.151  0.0000  0.0000  0.0000
17234SL     Si120293   9.421   1.557   8.360  0.0000  0.0000  0.0000
17234SL      O120294   9.421   1.557   8.196  0.0000  0.0000  0.0000
17234SL      H120295   9.421   1.557   8.098  0.0000  0.0000  0.0000
17235SL     Si120296   7.234   5.086   1.203  0.0000  0.0000  0.0000
17235SL      O120297   7.234   5.086   1.367  0.0000  0.0000  0.0000
17235SL      H120298   7.234   5.086   1.465  0.0000  0.0000  0.0000
17236SL     Si120299   5.476   7.195   1.368  0.0000  0.0000  0.0000
17236SL      O120300   5.476   7.195   1.532  0.0000  0.0000  0.0000
17236SL      H120301   5.476   7.195   1.630  0.0000  0.0000  0.0000
17237SL     Si120302   1.037   7.671   8.253  0.0000  0.0000  0.0000
17237SL      O120303   1.037   7.671   8.089  0.0000  0.0000  0.0000
17237SL      H120304   1.037   7.671   7.991  0.0000  0.0000  0.0000
17238SL     Si120305   0.039   4.305   8.373  0.0000  0.0000  0.0000
17238SL      O120306   0.039   4.305   8.209  0.0000  0.0000  0.0000
17238SL      H120307   0.039   4.305   8.111  0.0000  0.0000  0.0000
17239SL     Si120308   0.352   4.919   8.337  0.0000  0.0000  0.0000
17239SL      O120309   0.352   4.919   8.173  0.0000  0.0000  0.0000
17239SL      H120310   0.352   4.919   8.075  0.0000  0.0000  0.0000
17240SL     Si120311   4.242   7.882   8.538  0.0000  0.0000  0.0000
17240SL      O120312   4.242   7.882   8.374  0.0000  0.0000  0.0000
17240SL      H120313   4.242   7.882   8.276  0.0000  0.0000  0.0000
17241SL     Si120314   1.530   8.986   1.331  0.0000  0.0000  0.0000
17241SL      O120315   1.530   8.986   1.495  0.0000  0.0000  0.0000
17241SL      H120316   1.530   8.986   1.593  0.0000  0.0000  0.0000
17242SL     Si120317   2.799   3.395   1.344  0.0000  0.0000  0.0000
17242SL      O120318   2.799   3.395   1.508  0.0000  0.0000  0.0000
17242SL      H120319   2.799   3.395   1.606  0.0000  0.0000  0.0000
17243SL     Si120320   5.063   1.971   1.408  0.0000  0.0000  0.0000
17243SL      O120321   5.063   1.971   1.572  0.0000  0.0000  0.0000
17243SL      H120322   5.063   1.971   1.670  0.0000  0.0000  0.0000
17244SL     Si120323   4.209   3.564   1.371  0.0000  0.0000  0.0000
17244SL      O120324   4.209   3.564   1.535  0.0000  0.0000  0.0000
17244SL      H120325   4.209   3.564   1.633  0.0000  0.0000  0.0000
17245SL     Si120326   4.162   5.988   1.193  0.0000  0.0000  0.0000
17245SL      O120327   4.162   5.988   1.357  0.0000  0.0000  0.0000
17245SL      H120328   4.162   5.988   1.455  0.0000  0.0000  0.0000
17246SL     Si120329   7.071   2.660   8.169  0.0000  0.0000  0.0000
17246SL      O120330   7.071   2.660   8.005  0.0000  0.0000  0.0000
17246SL      H120331   7.071   2.660   7.907  0.0000  0.0000  0.0000
17247SL     Si120332   8.301   6.487   8.378  0.0000  0.0000  0.0000
17247SL      O120333   8.301   6.487   8.214  0.0000  0.0000  0.0000
17247SL      H120334   8.301   6.487   8.116  0.0000  0.0000  0.0000
17248SL     Si120335   0.894   4.159   1.403  0.0000  0.0000  0.0000
17248SL      O120336   0.894   4.159   1.567  0.0000  0.0000  0.0000
17248SL      H120337   0.894   4.159   1.665  0.0000  0.0000  0.0000
17249SL     Si120338   8.069   3.216   8.288  0.0000  0.0000  0.0000
17249SL      O120339   8.069   3.216   8.124  0.0000  0.0000  0.0000
17249SL      H120340   8.069   3.216   8.026  0.0000  0.0000  0.0000
17250SL     Si120341   0.820   5.162   1.351  0.0000  0.0000  0.0000
17250SL      O120342   0.820   5.162   1.515  0.0000  0.0000  0.0000
17250SL      H120343   0.820   5.162   1.613  0.0000  0.0000  0.0000
17251SL     Si120344   4.279   1.251   8.470  0.0000  0.0000  0.0000
17251SL      O120345   4.279   1.251   8.306  0.0000  0.0000  0.0000
17251SL      H120346   4.279   1.251   8.208  0.0000  0.0000  0.0000
17252SL     Si120347   1.698   0.222   8.279  0.0000  0.0000  0.0000
17252SL      O120348   1.698   0.222   8.115  0.0000  0.0000  0.0000
17252SL      H120349   1.698   0.222   8.017  0.0000  0.0000  0.0000
17253SL     Si120350   0.600   3.625   1.298  0.0000  0.0000  0.0000
17253SL      O120351   0.600   3.625   1.462  0.0000  0.0000  0.0000
17253SL      H120352   0.600   3.625   1.560  0.0000  0.0000  0.0000
17254SL     Si120353   5.032   8.907   1.271  0.0000  0.0000  0.0000
17254SL      O120354   5.032   8.907   1.435  0.0000  0.0000  0.0000
17254SL      H120355   5.032   8.907   1.533  0.0000  0.0000  0.0000
17255SL     Si120356   0.384   8.855   1.349  0.0000  0.0000  0.0000
17255SL      O120357   0.384   8.855   1.513  0.0000  0.0000  0.0000
17255SL      H120358   0.384   8.855   1.611  0.0000  0.0000  0.0000
17256SL     Si120359   6.807   4.455   8.291  0.0000  0.0000  0.0000
17256SL      O120360   6.807   4.455   8.127  0.0000  0.0000  0.0000
17256SL      H120361   6.807   4.455   8.029  0.0000  0.0000  0.0000
17257SL     Si120362   5.352   6.189   8.301  0.0000  0.0000  0.0000
17257SL      O120363   5.352   6.189   8.137  0.0000  0.0000  0.0000
17257SL      H120364   5.352   6.189   8.039  0.0000  0.0000  0.0000
17258SL     Si120365   9.114   3.243   8.327  0.0000  0.0000  0.0000
17258SL      O120366   9.114   3.243   8.163  0.0000  0.0000  0.0000
17258SL      H120367   9.114   3.243   8.065  0.0000  0.0000  0.0000
17259SL     Si120368   4.824   0.713   8.292  0.0000  0.0000  0.0000
17259SL      O120369   4.824   0.713   8.128  0.0000  0.0000  0.0000
17259SL      H120370   4.824   0.713   8.030  0.0000  0.0000  0.0000
17260SL     Si120371   6.438   3.459   1.136  0.0000  0.0000  0.0000
17260SL      O120372   6.438   3.459   1.300  0.0000  0.0000  0.0000
17260SL      H120373   6.438   3.459   1.398  0.0000  0.0000  0.0000
17261SL     Si120374   7.173   7.053   1.231  0.0000  0.0000  0.0000
17261SL      O120375   7.173   7.053   1.395  0.0000  0.0000  0.0000
17261SL      H120376   7.173   7.053   1.493  0.0000  0.0000  0.0000
17262SL     Si120377   9.498   1.821   8.229  0.0000  0.0000  0.0000
17262SL      O120378   9.498   1.821   8.065  0.0000  0.0000  0.0000
17262SL      H120379   9.498   1.821   7.967  0.0000  0.0000  0.0000
17263SL     Si120380   3.120   1.035   1.183  0.0000  0.0000  0.0000
17263SL      O120381   3.120   1.035   1.347  0.0000  0.0000  0.0000
17263SL      H120382   3.120   1.035   1.445  0.0000  0.0000  0.0000
17264SL     Si120383   1.417   6.968   1.377  0.0000  0.0000  0.0000
17264SL      O120384   1.417   6.968   1.541  0.0000  0.0000  0.0000
17264SL      H120385   1.417   6.968   1.639  0.0000  0.0000  0.0000
17265SL     Si120386   3.650   1.739   1.373  0.0000  0.0000  0.0000
17265SL      O120387   3.650   1.739   1.537  0.0000  0.0000  0.0000
17265SL      H120388   3.650   1.739   1.635  0.0000  0.0000  0.0000
17266SL     Si120389   0.214   9.562   1.169  0.0000  0.0000  0.0000
17266SL      O120390   0.214   9.562   1.333  0.0000  0.0000  0.0000
17266SL      H120391   0.214   9.562   1.431  0.0000  0.0000  0.0000
17267SL     Si120392   9.048   8.220   1.342  0.0000  0.0000  0.0000
17267SL      O120393   9.048   8.220   1.506  0.0000  0.0000  0.0000
17267SL      H120394   9.048   8.220   1.604  0.0000  0.0000  0.0000
17268SL     Si120395   6.053   7.901   8.356  0.0000  0.0000  0.0000
17268SL      O120396   6.053   7.901   8.192  0.0000  0.0000  0.0000
17268SL      H120397   6.053   7.901   8.094  0.0000  0.0000  0.0000
17269SL     Si120398   7.327   7.678   1.397  0.0000  0.0000  0.0000
17269SL      O120399   7.327   7.678   1.561  0.0000  0.0000  0.0000
17269SL      H120400   7.327   7.678   1.659  0.0000  0.0000  0.0000
17270SL     Si120401   8.161   9.566   1.398  0.0000  0.0000  0.0000
17270SL      O120402   8.161   9.566   1.562  0.0000  0.0000  0.0000
17270SL      H120403   8.161   9.566   1.660  0.0000  0.0000  0.0000
17271SL     Si120404   3.135   3.370   0.865  0.0000  0.0000  0.0000
17271SL      O120405   3.135   3.370   1.029  0.0000  0.0000  0.0000
17271SL      H120406   3.135   3.370   1.127  0.0000  0.0000  0.0000
17272SL     Si120407   4.955   6.430   1.161  0.0000  0.0000  0.0000
17272SL      O120408   4.955   6.430   1.325  0.0000  0.0000  0.0000
17272SL      H120409   4.955   6.430   1.423  0.0000  0.0000  0.0000
17273SL     Si120410   3.132   0.265   1.266  0.0000  0.0000  0.0000
17273SL      O120411   3.132   0.265   1.430  0.0000  0.0000  0.0000
17273SL      H120412   3.132   0.265   1.528  0.0000  0.0000  0.0000
17274SL     Si120413   5.336   7.733   8.366  0.0000  0.0000  0.0000
17274SL      O120414   5.336   7.733   8.202  0.0000  0.0000  0.0000
17274SL      H120415   5.336   7.733   8.104  0.0000  0.0000  0.0000
17275SL     Si120416   2.543   9.564   8.257  0.0000  0.0000  0.0000
17275SL      O120417   2.543   9.564   8.093  0.0000  0.0000  0.0000
17275SL      H120418   2.543   9.564   7.995  0.0000  0.0000  0.0000
17276SL     Si120419   1.318   7.529   1.203  0.0000  0.0000  0.0000
17276SL      O120420   1.318   7.529   1.367  0.0000  0.0000  0.0000
17276SL      H120421   1.318   7.529   1.465  0.0000  0.0000  0.0000
17277SL     Si120422   4.275   1.969   8.361  0.0000  0.0000  0.0000
17277SL      O120423   4.275   1.969   8.197  0.0000  0.0000  0.0000
17277SL      H120424   4.275   1.969   8.099  0.0000  0.0000  0.0000
17278SL     Si120425   8.252   6.161   1.272  0.0000  0.0000  0.0000
17278SL      O120426   8.252   6.161   1.436  0.0000  0.0000  0.0000
17278SL      H120427   8.252   6.161   1.534  0.0000  0.0000  0.0000
17279SL     Si120428   0.777   0.934   1.303  0.0000  0.0000  0.0000
17279SL      O120429   0.777   0.934   1.467  0.0000  0.0000  0.0000
17279SL      H120430   0.777   0.934   1.565  0.0000  0.0000  0.0000
17280SL     Si120431   4.511   7.317   8.313  0.0000  0.0000  0.0000
17280SL      O120432   4.511   7.317   8.149  0.0000  0.0000  0.0000
17280SL      H120433   4.511   7.317   8.051  0.0000  0.0000  0.0000
17281SL     Si120434   5.338   0.945   1.335  0.0000  0.0000  0.0000
17281SL      O120435   5.338   0.945   1.499  0.0000  0.0000  0.0000
17281SL      H120436   5.338   0.945   1.597  0.0000  0.0000  0.0000
17282SL     Si120437   4.247   6.407   1.298  0.0000  0.0000  0.0000
17282SL      O120438   4.247   6.407   1.462  0.0000  0.0000  0.0000
17282SL      H120439   4.247   6.407   1.560  0.0000  0.0000  0.0000
17283SL     Si120440   9.553   7.754   1.354  0.0000  0.0000  0.0000
17283SL      O120441   9.553   7.754   1.518  0.0000  0.0000  0.0000
17283SL      H120442   9.553   7.754   1.616  0.0000  0.0000  0.0000
17284SL     Si120443   3.791   2.170   8.588  0.0000  0.0000  0.0000
17284SL      O120444   3.791   2.170   8.424  0.0000  0.0000  0.0000
17284SL      H120445   3.791   2.170   8.326  0.0000  0.0000  0.0000
17285SL     Si120446   7.048   6.047   8.398  0.0000  0.0000  0.0000
17285SL      O120447   7.048   6.047   8.234  0.0000  0.0000  0.0000
17285SL      H120448   7.048   6.047   8.136  0.0000  0.0000  0.0000
17286SL     Si120449   4.190   7.136   1.324  0.0000  0.0000  0.0000
17286SL      O120450   4.190   7.136   1.488  0.0000  0.0000  0.0000
17286SL      H120451   4.190   7.136   1.586  0.0000  0.0000  0.0000
17287SL     Si120452   4.296   9.485   8.420  0.0000  0.0000  0.0000
17287SL      O120453   4.296   9.485   8.256  0.0000  0.0000  0.0000
17287SL      H120454   4.296   9.485   8.158  0.0000  0.0000  0.0000
17288SL     Si120455   6.504   1.932   1.316  0.0000  0.0000  0.0000
17288SL      O120456   6.504   1.932   1.480  0.0000  0.0000  0.0000
17288SL      H120457   6.504   1.932   1.578  0.0000  0.0000  0.0000
17289SL     Si120458   3.810   5.368   1.344  0.0000  0.0000  0.0000
17289SL      O120459   3.810   5.368   1.508  0.0000  0.0000  0.0000
17289SL      H120460   3.810   5.368   1.606  0.0000  0.0000  0.0000
17290SL     Si120461   7.156   3.846   8.273  0.0000  0.0000  0.0000
17290SL      O120462   7.156   3.846   8.109  0.0000  0.0000  0.0000
17290SL      H120463   7.156   3.846   8.011  0.0000  0.0000  0.0000
17291SL     Si120464   1.059   6.907   1.284  0.0000  0.0000  0.0000
17291SL      O120465   1.059   6.907   1.448  0.0000  0.0000  0.0000
17291SL      H120466   1.059   6.907   1.546  0.0000  0.0000  0.0000
17292SL     Si120467   0.480   0.011   8.296  0.0000  0.0000  0.0000
17292SL      O120468   0.480   0.011   8.132  0.0000  0.0000  0.0000
17292SL      H120469   0.480   0.011   8.034  0.0000  0.0000  0.0000
17293SL     Si120470   7.635   7.001   1.228  0.0000  0.0000  0.0000
17293SL      O120471   7.635   7.001   1.392  0.0000  0.0000  0.0000
17293SL      H120472   7.635   7.001   1.490  0.0000  0.0000  0.0000
17294SL     Si120473   6.640   9.385   1.262  0.0000  0.0000  0.0000
17294SL      O120474   6.640   9.385   1.426  0.0000  0.0000  0.0000
17294SL      H120475   6.640   9.385   1.524  0.0000  0.0000  0.0000
17295SL     Si120476   6.855   7.057   1.235  0.0000  0.0000  0.0000
17295SL      O120477   6.855   7.057   1.399  0.0000  0.0000  0.0000
17295SL      H120478   6.855   7.057   1.497  0.0000  0.0000  0.0000
17296SL     Si120479   0.820   0.249   8.368  0.0000  0.0000  0.0000
17296SL      O120480   0.820   0.249   8.204  0.0000  0.0000  0.0000
17296SL      H120481   0.820   0.249   8.106  0.0000  0.0000  0.0000
17297SL     Si120482   9.531   3.515   1.224  0.0000  0.0000  0.0000
17297SL      O120483   9.531   3.515   1.388  0.0000  0.0000  0.0000
17297SL      H120484   9.531   3.515   1.486  0.0000  0.0000  0.0000
17298SL     Si120485   1.040   8.020   1.352  0.0000  0.0000  0.0000
17298SL      O120486   1.040   8.020   1.516  0.0000  0.0000  0.0000
17298SL      H120487   1.040   8.020   1.614  0.0000  0.0000  0.0000
17299SL     Si120488   8.251   5.165   8.167  0.0000  0.0000  0.0000
17299SL      O120489   8.251   5.165   8.003  0.0000  0.0000  0.0000
17299SL      H120490   8.251   5.165   7.905  0.0000  0.0000  0.0000
17300SL     Si120491   0.533   1.796   1.280  0.0000  0.0000  0.0000
17300SL      O120492   0.533   1.796   1.444  0.0000  0.0000  0.0000
17300SL      H120493   0.533   1.796   1.542  0.0000  0.0000  0.0000
17301SL     Si120494   3.941   5.632   1.427  0.0000  0.0000  0.0000
17301SL      O120495   3.941   5.632   1.591  0.0000  0.0000  0.0000
17301SL      H120496   3.941   5.632   1.689  0.0000  0.0000  0.0000
17302SL     Si120497   1.056   3.683   1.205  0.0000  0.0000  0.0000
17302SL      O120498   1.056   3.683   1.369  0.0000  0.0000  0.0000
17302SL      H120499   1.056   3.683   1.467  0.0000  0.0000  0.0000
17303SL     Si120500   3.031   7.005   8.251  0.0000  0.0000  0.0000
17303SL      O120501   3.031   7.005   8.087  0.0000  0.0000  0.0000
17303SL      H120502   3.031   7.005   7.989  0.0000  0.0000  0.0000
17304SL     Si120503   5.689   3.394   1.366  0.0000  0.0000  0.0000
17304SL      O120504   5.689   3.394   1.530  0.0000  0.0000  0.0000
17304SL      H120505   5.689   3.394   1.628  0.0000  0.0000  0.0000
17305SL     Si120506   3.251   6.596   1.383  0.0000  0.0000  0.0000
17305SL      O120507   3.251   6.596   1.547  0.0000  0.0000  0.0000
17305SL      H120508   3.251   6.596   1.645  0.0000  0.0000  0.0000
17306SL     Si120509   7.410   6.622   1.336  0.0000  0.0000  0.0000
17306SL      O120510   7.410   6.622   1.500  0.0000  0.0000  0.0000
17306SL      H120511   7.410   6.622   1.598  0.0000  0.0000  0.0000
17307SLG    Si120512   0.859   2.304   1.416  0.0000  0.0000  0.0000
17307SLG     O120513   0.859   2.304   1.580  0.0000  0.0000  0.0000
17307SLG     H120514   0.859   2.304   1.678  0.0000  0.0000  0.0000
17307SLG     O220515   0.975   2.304   1.532  0.0000  0.0000  0.0000
17307SLG     H220516   0.975   2.304   1.630  0.0000  0.0000  0.0000
17308SLG    Si120517   9.403   7.585   8.296  0.0000  0.0000  0.0000
17308SLG     O120518   9.403   7.585   8.132  0.0000  0.0000  0.0000
17308SLG     H120519   9.403   7.585   8.034  0.0000  0.0000  0.0000
17308SLG     O220520   9.519   7.585   8.180  0.0000  0.0000  0.0000
17308SLG     H220521   9.519   7.585   8.082  0.0000  0.0000  0.0000
17309SLG    Si120522   2.022   4.667   8.191  0.0000  0.0000  0.0000
17309SLG     O120523   2.022   4.667   8.027  0.0000  0.0000  0.0000
17309SLG     H120524   2.022   4.667   7.929  0.0000  0.0000  0.0000
17309SLG     O220525   2.138   4.667   8.075  0.0000  0.0000  0.0000
17309SLG     H220526   2.138   4.667   7.977  0.0000  0.0000  0.0000
17310SLG    Si120527   4.714   5.602   8.208  0.0000  0.0000  0.0000
17310SLG     O120528   4.714   5.602   8.044  0.0000  0.0000  0.0000
17310SLG     H120529   4.714   5.602   7.946  0.0000  0.0000  0.0000
17310SLG     O220530   4.830   5.602   8.092  0.0000  0.0000  0.0000
17310SLG     H220531   4.830   5.602   7.994  0.0000  0.0000  0.0000
17311SLG    Si120532   5.952   2.285   8.267  0.0000  0.0000  0.0000
17311SLG     O120533   5.952   2.285   8.103  0.0000  0.0000  0.0000
17311SLG     H120534   5.952   2.285   8.005  0.0000  0.0000  0.0000
17311SLG     O220535   6.068   2.285   8.151  0.0000  0.0000  0.0000
17311SLG     H220536   6.068   2.285   8.053  0.0000  0.0000  0.0000
17312SLG    Si120537   3.290   6.280   1.382  0.0000  0.0000  0.0000
17312SLG     O120538   3.290   6.280   1.546  0.0000  0.0000  0.0000
17312SLG     H120539   3.290   6.280   1.644  0.0000  0.0000  0.0000
17312SLG     O220540   3.406   6.280   1.498  0.0000  0.0000  0.0000
17312SLG     H220541   3.406   6.280   1.596  0.0000  0.0000  0.0000
17313SLG    Si120542   7.263   7.527   8.241  0.0000  0.0000  0.0000
17313SLG     O120543   7.263   7.527   8.077  0.0000  0.0000  0.0000
17313SLG     H120544   7.263   7.527   7.979  0.0000  0.0000  0.0000
17313SLG     O220545   7.379   7.527   8.125  0.0000  0.0000  0.0000
17313SLG     H220546   7.379   7.527   8.027  0.0000  0.0000  0.0000
17314SLG    Si120547   6.653   7.587   8.247  0.0000  0.0000  0.0000
17314SLG     O120548   6.653   7.587   8.083  0.0000  0.0000  0.0000
17314SLG     H120549   6.653   7.587   7.985  0.0000  0.0000  0.0000
17314SLG     O220550   6.769   7.587   8.131  0.0000  0.0000  0.0000
17314SLG     H220551   6.769   7.587   8.033  0.0000  0.0000  0.0000
17315SLG    Si120552   1.378   4.412   1.400  0.0000  0.0000  0.0000
17315SLG     O120553   1.378   4.412   1.564  0.0000  0.0000  0.0000
17315SLG     H120554   1.378   4.412   1.662  0.0000  0.0000  0.0000
17315SLG     O220555   1.494   4.412   1.516  0.0000  0.0000  0.0000
17315SLG     H220556   1.494   4.412   1.614  0.0000  0.0000  0.0000
17316SLG    Si120557   4.945   0.271   8.185  0.0000  0.0000  0.0000
17316SLG     O120558   4.945   0.271   8.021  0.0000  0.0000  0.0000
17316SLG     H120559   4.945   0.271   7.923  0.0000  0.0000  0.0000
17316SLG     O220560   5.061   0.271   8.069  0.0000  0.0000  0.0000
17316SLG     H220561   5.061   0.271   7.971  0.0000  0.0000  0.0000
17317SLG    Si120562   2.500   5.254   1.408  0.0000  0.0000  0.0000
17317SLG     O120563   2.500   5.254   1.572  0.0000  0.0000  0.0000
17317SLG     H120564   2.500   5.254   1.670  0.0000  0.0000  0.0000
17317SLG     O220565   2.616   5.254   1.524  0.0000  0.0000  0.0000
17317SLG     H220566   2.616   5.254   1.622  0.0000  0.0000  0.0000
17318SLG    Si120567   9.589   9.227   1.417  0.0000  0.0000  0.0000
17318SLG     O120568   9.589   9.227   1.581  0.0000  0.0000  0.0000
17318SLG     H120569   9.589   9.227   1.679  0.0000  0.0000  0.0000
17318SLG     O220570   9.705   9.227   1.533  0.0000  0.0000  0.0000
17318SLG     H220571   9.705   9.227   1.631  0.0000  0.0000  0.0000
17319SLG    Si120572   5.883   7.872   1.398  0.0000  0.0000  0.0000
17319SLG     O120573   5.883   7.872   1.562  0.0000  0.0000  0.0000
17319SLG     H120574   5.883   7.872   1.660  0.0000  0.0000  0.0000
17319SLG     O220575   5.999   7.872   1.514  0.0000  0.0000  0.0000
17319SLG     H220576   5.999   7.872   1.612  0.0000  0.0000  0.0000
17320SLG    Si120577   1.598   8.765   8.261  0.0000  0.0000  0.0000
17320SLG     O120578   1.598   8.765   8.097  0.0000  0.0000  0.0000
17320SLG     H120579   1.598   8.765   7.999  0.0000  0.0000  0.0000
17320SLG     O220580   1.714   8.765   8.145  0.0000  0.0000  0.0000
17320SLG     H220581   1.714   8.765   8.047  0.0000  0.0000  0.0000
17321SLG    Si120582   2.694   7.471   8.220  0.0000  0.0000  0.0000
17321SLG     O120583   2.694   7.471   8.056  0.0000  0.0000  0.0000
17321SLG     H120584   2.694   7.471   7.958  0.0000  0.0000  0.0000
17321SLG     O220585   2.810   7.471   8.104  0.0000  0.0000  0.0000
17321SLG     H220586   2.810   7.471   8.006  0.0000  0.0000  0.0000
17322SLG    Si120587   3.907   6.760   1.353  0.0000  0.0000  0.0000
17322SLG     O120588   3.907   6.760   1.517  0.0000  0.0000  0.0000
17322SLG     H120589   3.907   6.760   1.615  0.0000  0.0000  0.0000
17322SLG     O220590   4.023   6.760   1.469  0.0000  0.0000  0.0000
17322SLG     H220591   4.023   6.760   1.567  0.0000  0.0000  0.0000
17323SLG    Si120592   4.069   3.091   1.290  0.0000  0.0000  0.0000
17323SLG     O120593   4.069   3.091   1.454  0.0000  0.0000  0.0000
17323SLG     H120594   4.069   3.091   1.552  0.0000  0.0000  0.0000
17323SLG     O220595   4.185   3.091   1.406  0.0000  0.0000  0.0000
17323SLG     H220596   4.185   3.091   1.504  0.0000  0.0000  0.0000
17324SLG    Si120597   0.343   2.386   1.362  0.0000  0.0000  0.0000
17324SLG     O120598   0.343   2.386   1.526  0.0000  0.0000  0.0000
17324SLG     H120599   0.343   2.386   1.624  0.0000  0.0000  0.0000
17324SLG     O220600   0.459   2.386   1.478  0.0000  0.0000  0.0000
17324SLG     H220601   0.459   2.386   1.576  0.0000  0.0000  0.0000
17325SLG    Si120602   0.200   3.898   1.330  0.0000  0.0000  0.0000
17325SLG     O120603   0.200   3.898   1.494  0.0000  0.0000  0.0000
17325SLG     H120604   0.200   3.898   1.592  0.0000  0.0000  0.0000
17325SLG     O220605   0.316   3.898   1.446  0.0000  0.0000  0.0000
17325SLG     H220606   0.316   3.898   1.544  0.0000  0.0000  0.0000
17326SLG    Si120607   8.299   5.636   1.387  0.0000  0.0000  0.0000
17326SLG     O120608   8.299   5.636   1.551  0.0000  0.0000  0.0000
17326SLG     H120609   8.299   5.636   1.649  0.0000  0.0000  0.0000
17326SLG     O220610   8.415   5.636   1.503  0.0000  0.0000  0.0000
17326SLG     H220611   8.415   5.636   1.601  0.0000  0.0000  0.0000
17327SLG    Si120612   8.291   0.594   8.241  0.0000  0.0000  0.0000
17327SLG     O120613   8.291   0.594   8.077  0.0000  0.0000  0.0000
17327SLG     H120614   8.291   0.594   7.979  0.0000  0.0000  0.0000
17327SLG     O220615   8.407   0.594   8.125  0.0000  0.0000  0.0000
17327SLG     H220616   8.407   0.594   8.027  0.0000  0.0000  0.0000
17328SLG    Si120617   1.880   2.152   8.226  0.0000  0.0000  0.0000
17328SLG     O120618   1.880   2.152   8.062  0.0000  0.0000  0.0000
17328SLG     H120619   1.880   2.152   7.964  0.0000  0.0000  0.0000
17328SLG     O220620   1.996   2.152   8.110  0.0000  0.0000  0.0000
17328SLG     H220621   1.996   2.152   8.012  0.0000  0.0000  0.0000
17329SLG    Si120622   8.225   7.040   8.235  0.0000  0.0000  0.0000
17329SLG     O120623   8.225   7.040   8.071  0.0000  0.0000  0.0000
17329SLG     H120624   8.225   7.040   7.973  0.0000  0.0000  0.0000
17329SLG     O220625   8.341   7.040   8.119  0.0000  0.0000  0.0000
17329SLG     H220626   8.341   7.040   8.021  0.0000  0.0000  0.0000
17330SLG    Si120627   6.188   3.734   1.416  0.0000  0.0000  0.0000
17330SLG     O120628   6.188   3.734   1.580  0.0000  0.0000  0.0000
17330SLG     H120629   6.188   3.734   1.678  0.0000  0.0000  0.0000
17330SLG     O220630   6.304   3.734   1.532  0.0000  0.0000  0.0000
17330SLG     H220631   6.304   3.734   1.630  0.0000  0.0000  0.0000
17331SLG    Si120632   0.785   2.157   8.254  0.0000  0.0000  0.0000
17331SLG     O120633   0.785   2.157   8.090  0.0000  0.0000  0.0000
17331SLG     H120634   0.785   2.157   7.992  0.0000  0.0000  0.0000
17331SLG     O220635   0.901   2.157   8.138  0.0000  0.0000  0.0000
17331SLG     H220636   0.901   2.157   8.040  0.0000  0.0000  0.0000
17332SLG    Si120637   4.867   6.476   8.338  0.0000  0.0000  0.0000
17332SLG     O120638   4.867   6.476   8.174  0.0000  0.0000  0.0000
17332SLG     H120639   4.867   6.476   8.076  0.0000  0.0000  0.0000
17332SLG     O220640   4.983   6.476   8.222  0.0000  0.0000  0.0000
17332SLG     H220641   4.983   6.476   8.124  0.0000  0.0000  0.0000
17333SLG    Si120642   0.168   5.329   8.271  0.0000  0.0000  0.0000
17333SLG     O120643   0.168   5.329   8.107  0.0000  0.0000  0.0000
17333SLG     H120644   0.168   5.329   8.009  0.0000  0.0000  0.0000
17333SLG     O220645   0.284   5.329   8.155  0.0000  0.0000  0.0000
17333SLG     H220646   0.284   5.329   8.057  0.0000  0.0000  0.0000
17334THY      O20647   1.549   6.496   3.794  0.6597  0.3859  1.0141
17334THY     HO20648   1.579   6.576   3.748  0.1564 -0.9287  0.4617
17334THY    CA120649   1.649   6.469   3.878  0.0866 -0.2000 -0.6444
17334THY    CA220650   1.637   6.359   3.968  0.6186 -0.7121 -0.1021
17334THY    CP120651   1.494   6.287   3.985  0.4801  0.5163  0.2763
17334THY    HP120652   1.434   6.293   3.893  0.1352  0.6382 -1.0346
17334THY    CP220653   1.413   6.372   4.082  0.0448  0.2458  0.3779
17334THY    HP220654   1.311   6.331   4.078  0.6230 -1.8102 -0.9910
17334THY    HP320655   1.407   6.475   4.044  1.2176 -2.2666 -0.3993
17334THY    HP420656   1.454   6.381   4.184 -1.6093  0.8299  2.1952
17334THY    CP320657   1.508   6.141   4.029 -0.4696  0.0818  0.3688
17334THY    HP520658   1.575   6.088   3.960  0.2414  0.3659  0.8804
17334THY    HP620659   1.412   6.088   4.031  0.4032  0.7001 -1.2341
17334THY    HP720660   1.556   6.135   4.127 -2.6300  1.2348  0.6895
17334THY    CA320661   1.750   6.319   4.047 -0.0206  0.1599  0.1232
17334THY    HA320662   1.738   6.234   4.115  0.0535 -0.9997 -0.8455
17334THY    CA420663   1.869   6.393   4.030 -0.0196 -0.4570 -0.7890
17334THY    HA420664   1.955   6.370   4.093 -0.4001  0.2167 -0.3887
17334THY    CA520665   1.872   6.511   3.949  0.7868 -0.8282 -0.1746
17334THY    CM120666   1.993   6.601   3.962  0.0187  0.2960  0.2710
17334THY    HM120667   1.984   6.644   4.062 -0.4502  0.5307 -0.3630
17334THY    HM220668   1.998   6.690   3.897 -0.5676 -0.5068 -0.2677
17334THY    HM320669   2.086   6.545   3.946 -1.3197 -1.7559 -1.5583
17334THY    CA620670   1.763   6.544   3.867  0.2980 -0.4014 -0.0199
17334THY    HA620671   1.761   6.639   3.814  1.1767  1.0694  0.8603
17335THY      O20672   6.151   6.093   2.355 -0.0038  0.4765 -0.1556
17335THY     HO20673   6.210   6.149   2.301  0.0945 -1.1872 -1.7520
17335THY    CA120674   6.049   6.055   2.273  0.7828 -0.0783 -0.1921
17335THY    CA220675   5.937   5.981   2.318  0.1207 -0.0511 -0.0872
17335THY    CP120676   5.922   5.934   2.462  0.2804  0.2984  0.5170
17335THY    HP120677   6.024   5.911   2.494  0.3135 -0.7478 -0.8892
17335THY    CP220678   5.846   5.804   2.487 -0.4069 -0.1635  0.3352
17335THY    HP220679   5.888   5.725   2.424 -1.7679 -0.7458  0.0468
17335THY    HP320680   5.741   5.818   2.457 -0.6796  1.3484  1.8968
17335THY    HP420681   5.848   5.789   2.595 -1.5548 -0.0324  0.9448
17335THY    CP320682   5.861   6.052   2.537 -0.5543 -0.2672 -0.0678
17335THY    HP520683   5.760   6.060   2.496  0.7245 -3.4412  1.4695
17335THY    HP620684   5.914   6.148   2.528  0.3738 -2.4600 -0.7319
17335THY    HP720685   5.862   6.032   2.645 -0.6698 -0.6026 -2.0791
17335THY    CA320686   5.825   5.964   2.234  0.2570  0.5258  0.4698
17335THY    HA320687   5.739   5.915   2.279  0.2036  2.6062  2.2985
17335THY    CA420688   5.821   6.017   2.105 -0.0001 -0.7946 -0.0449
17335THY    HA420689   5.735   5.998   2.042  1.1998 -2.1780 -1.1242
17335THY    CA520690   5.935   6.091   2.056 -0.2885  0.2679  0.2354
17335THY    CM120691   5.927   6.160   1.919 -0.2208 -0.0360 -0.2379
17335THY    HM120692   5.874   6.256   1.923 -0.5318 -0.5347 -0.3847
17335THY    HM220693   5.871   6.092   1.854  0.4497  0.0680 -0.9083
17335THY    HM320694   6.026   6.181   1.877 -0.9468 -0.4653  2.8220
17335THY    CA620695   6.041   6.105   2.141  0.2414 -0.7141 -0.0853
17335THY    HA620696   6.123   6.166   2.106  0.3332 -1.6495 -0.7335
17336THY      O20697   3.433   5.247   5.698  0.2706  0.2612  0.1543
17336THY     HO20698   3.383   5.292   5.768 -2.1299 -1.7501  0.8161
17336THY    CA120699   3.389   5.118   5.720 -0.5454  0.3850 -0.3805
17336THY    CA220700   3.416   5.020   5.622  0.2500 -0.1660  0.3976
17336THY    CP120701   3.510   5.052   5.501  0.2278  1.0378 -0.2407
17336THY    HP120702   3.532   5.160   5.504 -0.0136  1.3679 -0.1993
17336THY    CP220703   3.439   5.015   5.360 -0.3709 -0.3079 -0.0291
17336THY    HP220704   3.343   5.067   5.354  0.8797 -2.1828  2.2626
17336THY    HP320705   3.425   4.907   5.348  1.5961  1.0324 -0.4868
17336THY    HP420706   3.502   5.053   5.279  0.2667  0.5748  0.8352
17336THY    CP320707   3.643   4.980   5.515  0.2738  0.2578  0.4447
17336THY    HP520708   3.625   4.875   5.490 -1.6620  2.0368  0.2952
17336THY    HP620709   3.679   4.994   5.617 -0.7623  1.0396 -2.0603
17336THY    HP720710   3.712   5.009   5.435  0.2798 -0.5470 -1.5831
17336THY    CA320711   3.372   4.892   5.651 -0.9043  0.0633  0.6477
17336THY    HA320712   3.390   4.810   5.582  1.4208  1.6027 -0.2671
17336THY    CA420713   3.303   4.868   5.769 -0.5061 -0.0490  0.3118
17336THY    HA420714   3.265   4.768   5.788 -0.9957 -4.1470 -0.4760
17336THY    CA520715   3.259   4.975   5.852 -0.2629  0.6812 -0.5242
17336THY    CM120716   3.180   4.943   5.969 -0.1962  0.1913  0.1921
17336THY    HM120717   3.094   4.878   5.948  0.3198 -1.2971 -0.0462
17336THY    HM220718   3.136   5.035   6.009 -0.2530  1.4459 -0.3713
17336THY    HM320719   3.240   4.897   6.047 -2.9769  2.1074 -0.4519
17336THY    CA620720   3.307   5.103   5.826 -0.4074  0.1753  0.2070
17336THY    HA620721   3.285   5.183   5.895 -0.3911 -0.5275  0.8263
17337THY      O20722   8.426   7.018   5.505  0.0557 -0.8259  0.1161
17337THY     HO20723   8.391   7.108   5.512 -0.6187  1.3522 -0.2572
17337THY    CA120724   8.560   7.036   5.480  0.8921 -0.7560 -0.9845
17337THY    CA220725   8.652   6.930   5.477 -0.6502  0.1134 -0.8702
17337THY    CP120726   8.610   6.792   5.516  0.0812  0.5459 -0.0336
17337THY    HP120727   8.503   6.781   5.539  0.2213  0.1859 -2.7075
17337THY    CP220728   8.677   6.769   5.646  0.0031  0.0254 -0.0015
17337THY    HP220729   8.657   6.667   5.681  0.9462  0.4553 -0.0494
17337THY    HP320730   8.633   6.827   5.728  3.3313  2.4924 -0.6553
17337THY    HP420731   8.784   6.791   5.643 -0.5051  1.0308  3.2102
17337THY    CP320732   8.636   6.685   5.401 -0.1481 -0.5138  0.5604
17337THY    HP520733   8.743   6.676   5.379 -0.0912  0.5261 -2.3243
17337THY    HP620734   8.579   6.716   5.313  0.4765 -1.0630  0.1769
17337THY    HP720735   8.588   6.592   5.435 -2.0365  0.5950  1.8683
17337THY    CA320736   8.786   6.959   5.440  0.1877  0.0136 -0.1505
17337THY    HA320737   8.860   6.882   5.463  0.9883 -0.0924  0.5720
17337THY    CA420738   8.820   7.091   5.407 -0.1014 -0.2902 -0.0922
17337THY    HA420739   8.921   7.113   5.374  1.3725  3.1050 -1.1831
17337THY    CA520740   8.721   7.190   5.397  0.0179  0.3271  0.0419
17337THY    CM120741   8.745   7.323   5.336 -0.2029 -0.0273  0.0196
17337THY    HM120742   8.853   7.333   5.320 -0.4611 -1.0745  1.4667
17337THY    HM220743   8.705   7.408   5.393 -1.1624 -1.8492  0.8498
17337THY    HM320744   8.700   7.327   5.236 -0.3859  0.0517 -0.0364
17337THY    CA620745   8.589   7.158   5.429 -0.8540  0.3059  0.0656
17337THY    HA620746   8.512   7.234   5.425 -0.3696  0.7236  0.5844
17338THY      O20747   9.173   3.598   3.159  0.0510  0.1019 -0.5629
17338THY     HO20748   9.194   3.636   3.072 -1.6715 -1.0669 -2.1256
17338THY    CA120749   9.217   3.678   3.254  0.1163 -0.2474 -0.1960
17338THY    CA220750   9.156   3.691   3.383  0.2691  0.3385  0.1883
17338THY    CP120751   9.021   3.624   3.422  0.9616  0.3230 -0.0158
17338THY    HP120752   8.963   3.640   3.331 -1.8854  2.3917  3.1328
17338THY    CP220753   8.933   3.700   3.518  0.3462 -0.1399 -0.2833
17338THY    HP220754   8.917   3.804   3.486 -2.0991  0.6973 -0.3492
17338THY    HP320755   8.985   3.714   3.614 -0.6120  0.1332  1.9045
17338THY    HP420756   8.834   3.653   3.524  0.5016  0.4184 -0.5517
17338THY    CP320757   9.028   3.478   3.466  0.0987  0.9309  0.4675
17338THY    HP520758   9.078   3.470   3.563 -0.1430  1.0953  0.9131
17338THY    HP620759   9.084   3.428   3.386  0.1447  1.6944 -0.7343
17338THY    HP720760   8.929   3.433   3.457  0.6604 -0.8080 -0.5362
17338THY    CA320761   9.230   3.759   3.481  0.0331  0.1375  0.0699
17338THY    HA320762   9.204   3.745   3.586  3.4506  0.9728 -1.2129
17338THY    CA420763   9.347   3.829   3.450 -0.2884 -0.7652 -0.2545
17338THY    HA420764   9.400   3.885   3.527 -0.6625 -0.0156 -0.9077
17338THY    CA520765   9.397   3.821   3.324 -0.0965 -0.5522  0.4707
17338THY    CM120766   9.530   3.886   3.288  0.5395 -0.0991  0.1814
17338THY    HM120767   9.502   3.992   3.289  2.8287  0.4826  0.8299
17338THY    HM220768   9.554   3.866   3.183  0.9299  0.1767 -0.8333
17338THY    HM320769   9.604   3.865   3.365 -1.6866  1.3142 -3.3572
17338THY    CA620770   9.327   3.750   3.225  0.2221 -0.1967 -0.1316
17338THY    HA620771   9.372   3.731   3.128  2.5986  1.2076 -2.3770
17339THY      O20772   6.218   9.090   6.720 -0.3790  0.3099 -0.1933
17339THY     HO20773   6.308   9.058   6.708 -0.5306 -1.5490 -0.0336
17339THY    CA120774   6.140   9.036   6.620 -0.0194 -0.0491  0.2917
17339THY    CA220775   5.999   9.045   6.620 -0.0845 -0.4784  0.3656
17339THY    CP120776   5.914   9.115   6.727 -0.1359 -0.5762 -0.7643
17339THY    HP120777   5.975   9.164   6.804  0.4313 -0.2545 -1.9525
17339THY    CP220778   5.818   9.016   6.801  0.1863 -0.9316  0.8108
17339THY    HP220779   5.872   8.973   6.886 -2.8902  0.4517 -0.6394
17339THY    HP320780   5.781   8.929   6.747  1.9398 -1.2469  0.2186
17339THY    HP420781   5.737   9.075   6.848 -0.1611  0.5463 -0.7637
17339THY    CP320782   5.842   9.234   6.667 -0.0279  0.5429 -0.0877
17339THY    HP520783   5.781   9.209   6.579  0.8253 -0.2634  0.6262
17339THY    HP620784   5.912   9.302   6.619 -0.7904  0.3806  0.6001
17339THY    HP720785   5.795   9.296   6.744  1.3855  1.7314 -0.4564
17339THY    CA320786   5.928   8.982   6.517  0.3199  0.6048  0.2575
17339THY    HA320787   5.822   8.990   6.499  0.4674 -0.0160  0.9271
17339THY    CA420788   5.998   8.916   6.421  0.0732  0.5147  0.0604
17339THY    HA420789   5.953   8.874   6.332  0.2238  0.0734  0.8153
17339THY    CA520790   6.139   8.912   6.420  1.2338 -0.3003 -0.2605
17339THY    CM120791   6.210   8.839   6.313 -0.3277  0.3250 -0.0329
17339THY    HM120792   6.232   8.734   6.336  1.2174  1.9721  0.5870
17339THY    HM220793   6.313   8.873   6.293 -1.2984 -4.4111  0.8516
17339THY    HM320794   6.159   8.851   6.217 -1.4512  0.7058 -1.5038
17339THY    CA620795   6.209   8.974   6.527 -0.1700  0.0900  0.1817
17339THY    HA620796   6.316   8.957   6.523 -0.4905 -1.3430 -2.0418
17340THY      O20797   4.843   7.800   5.942 -0.2793  0.2758 -0.2179
17340THY     HO20798   4.843   7.863   6.017  0.6087 -0.6131  0.8736
17340THY    CA120799   4.720   7.746   5.929 -0.0542  0.0494 -0.0659
17340THY    CA220800   4.706   7.614   5.877 -0.3520  0.1405  0.2599
17340THY    CP120801   4.838   7.534   5.850 -0.0713  0.7579 -1.0902
17340THY    HP120802   4.930   7.586   5.878 -0.1235  1.8428 -1.5594
17340THY    CP220803   4.841   7.494   5.696  0.1386 -0.0421 -0.3559
17340THY    HP220804   4.846   7.590   5.644  1.3881  0.7419  0.0227
17340THY    HP320805   4.754   7.429   5.675  0.4558  0.6979 -1.0448
17340THY    HP420806   4.933   7.440   5.672  0.3279 -2.7377  1.0086
17340THY    CP320807   4.843   7.404   5.929  0.4157  0.2819 -0.0304
17340THY    HP520808   4.744   7.357   5.930  1.5440  2.7422 -2.6393
17340THY    HP620809   4.871   7.433   6.031  2.4447 -0.6563  1.5738
17340THY    HP720810   4.921   7.336   5.894 -1.2282  0.1887 -1.9760
17340THY    CA320811   4.580   7.557   5.860 -0.3369  0.3848  0.4911
17340THY    HA320812   4.569   7.456   5.822  0.7540  0.1951  0.4314
17340THY    CA420813   4.468   7.641   5.888 -0.2846 -0.2278  0.3172
17340THY    HA420814   4.368   7.601   5.873  0.1193  0.9133 -1.2477
17340THY    CA520815   4.483   7.768   5.942 -0.2318 -0.4308 -0.2341
17340THY    CM120816   4.361   7.856   5.961  0.1923  0.3815  0.5078
17340THY    HM120817   4.396   7.949   6.006  1.5681 -0.0069  0.2008
17340THY    HM220818   4.297   7.791   6.022  0.4099  1.2896  1.1296
17340THY    HM320819   4.316   7.879   5.863  0.1715  0.1869 -0.3051
17340THY    CA620820   4.613   7.825   5.950  1.3368 -0.2027  0.2531
17340THY    HA620821   4.618   7.929   5.983 -1.1668 -1.6189  0.9125
17341THY      O20822   5.006   8.152   5.889 -0.2661 -0.0207 -0.6311
17341THY     HO20823   5.024   8.245   5.867 -1.2552 -0.4390 -0.5191
17341THY    CA120824   5.130   8.090   5.898  0.7504 -0.0781  0.6020
17341THY    CA220825   5.161   7.979   5.816  0.2588  0.3298 -0.2772
17341THY    CP120826   5.058   7.929   5.703  0.0727 -0.2710 -1.0577
17341THY    HP120827   4.955   7.944   5.737 -1.2216 -4.0817 -0.2511
17341THY    CP220828   5.073   7.783   5.656 -0.0267  0.3650 -0.4650
17341THY    HP220829   4.995   7.776   5.580  1.3740 -1.4729  2.2313
17341THY    HP320830   5.064   7.706   5.734  1.7490 -0.2039 -1.3196
17341THY    HP420831   5.169   7.764   5.606 -1.4258 -1.9177 -2.1236
17341THY    CP320832   5.096   8.025   5.587 -0.8107  0.3246  0.8589
17341THY    HP520833   5.204   8.032   5.572 -0.6015 -0.4092 -2.3314
17341THY    HP620834   5.059   8.125   5.613  0.6391 -1.6655  1.9579
17341THY    HP720835   5.049   8.007   5.490 -0.2261 -0.0120  1.1359
17341THY    CA320836   5.285   7.917   5.841  0.1121  0.1746  0.4471
17341THY    HA320837   5.313   7.830   5.783  1.2975  0.4482  0.6315
17341THY    CA420838   5.373   7.968   5.944 -0.0669  0.0673  0.0970
17341THY    HA420839   5.470   7.923   5.968  0.3410 -2.1367 -0.3066
17341THY    CA520840   5.337   8.075   6.021 -0.5585 -0.4405 -0.0616
17341THY    CM120841   5.425   8.123   6.140 -0.2081  0.5735  0.1368
17341THY    HM120842   5.529   8.090   6.133 -0.6514  0.2285 -1.2699
17341THY    HM220843   5.385   8.097   6.239 -0.0300  1.3324  2.5049
17341THY    HM320844   5.423   8.233   6.140  0.3240  1.0182  0.1494
17341THY    CA620845   5.218   8.138   5.997  0.3026 -0.4547 -0.1370
17341THY    HA620846   5.203   8.233   6.047  2.1776 -0.2428  0.0758
17342THY      O20847   9.161   6.316   5.680  0.4035 -0.1740  0.1123
17342THY     HO20848   9.153   6.321   5.777 -0.8506 -0.2490 -0.2532
17342THY    CA120849   9.041   6.291   5.621 -1.1108  0.4015 -0.3686
17342THY    CA220850   9.037   6.252   5.489  0.1152  0.1057  0.5890
17342THY    CP120851   9.163   6.219   5.403  0.1672  0.5730 -0.0325
17342THY    HP120852   9.258   6.224   5.457  0.7776 -0.5489  0.8995
17342THY    CP220853   9.179   6.320   5.289  0.4612 -0.1602 -0.5854
17342THY    HP220854   9.163   6.424   5.319 -0.5544  0.4106 -0.8839
17342THY    HP320855   9.104   6.304   5.210 -0.1182  0.1665  0.4077
17342THY    HP420856   9.277   6.308   5.241  0.1498 -0.5818 -1.5397
17342THY    CP320857   9.159   6.080   5.346  0.5782 -0.2514  0.2027
17342THY    HP520858   9.058   6.054   5.312 -0.0468 -1.6008  3.7592
17342THY    HP620859   9.194   6.016   5.427 -0.6948  1.1154  1.1725
17342THY    HP720860   9.232   6.074   5.264 -0.2529 -1.2542  2.4607
17342THY    CA320861   8.910   6.254   5.430 -0.2506  0.7685 -0.0100
17342THY    HA320862   8.899   6.224   5.326  1.0592 -0.0305  2.0661
17342THY    CA420863   8.793   6.273   5.501  0.3323 -0.5968  0.1141
17342THY    HA420864   8.696   6.263   5.454 -0.0176  0.0114  0.6053
17342THY    CA520865   8.792   6.311   5.634  0.4416  0.3300  0.0722
17342THY    CM120866   8.666   6.345   5.701  0.5332 -0.0994 -0.5383
17342THY    HM120867   8.586   6.270   5.691  0.2210  2.1008 -0.5616
17342THY    HM220868   8.632   6.441   5.661  0.7155 -3.5626 -1.7884
17342THY    HM320869   8.680   6.367   5.808 -0.7721 -0.0132 -0.0765
17342THY    CA620870   8.924   6.326   5.693  0.6001 -0.6157 -0.1655
17342THY    HA620871   8.923   6.357   5.797  1.3309 -0.4934 -0.5245
17343THY      O20872   6.215   7.347   6.549 -0.0418  0.0304 -0.2249
17343THY     HO20873   6.280   7.300   6.494 -0.4280  0.6399 -1.5200
17343THY    CA120874   6.148   7.249   6.605 -0.1383  0.1586 -0.2222
17343THY    CA220875   6.034   7.269   6.681  0.7939  0.4961 -0.2995
17343THY    CP120876   5.979   7.410   6.709  0.1944  0.0442 -0.7954
17343THY    HP120877   6.049   7.489   6.680 -0.4080  0.6350 -0.0397
17343THY    CP220878   5.949   7.431   6.864 -0.0594  0.8411  0.3092
17343THY    HP220879   6.037   7.395   6.919  0.9388 -0.8357  0.1032
17343THY    HP320880   5.859   7.378   6.897 -1.4261 -1.9139  0.7312
17343THY    HP420881   5.921   7.532   6.897 -0.9158  0.6585  0.1384
17343THY    CP320882   5.853   7.422   6.620  0.3620  0.8282 -0.4245
17343THY    HP520883   5.882   7.412   6.514  0.1548  0.7085  0.1490
17343THY    HP620884   5.795   7.514   6.635  0.7472  2.0055 -0.3657
17343THY    HP720885   5.782   7.342   6.642 -1.8942  0.1066  1.2482
17343THY    CA320886   5.973   7.158   6.748  0.2148 -0.3754 -0.3023
17343THY    HA320887   5.889   7.168   6.816  0.6055 -0.2319  3.6440
17343THY    CA420888   6.026   7.027   6.724 -0.0204  0.6041  0.2901
17343THY    HA420889   5.982   6.939   6.770 -1.1757 -1.1641 -0.1059
17343THY    CA520890   6.143   7.006   6.644  0.0253 -0.4835  0.5585
17343THY    CM120891   6.182   6.858   6.622  0.0270 -0.1276  0.4232
17343THY    HM120892   6.246   6.830   6.706 -0.8203  0.9091  1.4836
17343THY    HM220893   6.225   6.848   6.522 -1.8821 -1.0618  1.0406
17343THY    HM320894   6.090   6.798   6.616  1.1526 -1.0034 -1.2836
17343THY    CA620895   6.203   7.119   6.583 -0.1684  0.9933 -0.2682
17343THY    HA620896   6.283   7.107   6.509  0.5977  1.1204  3.1259
17344THY      O20897   6.391   4.458   3.302  0.6875  0.1020  0.1400
17344THY     HO20898   6.351   4.393   3.241 -0.2530  0.4670  0.3580
17344THY    CA120899   6.334   4.581   3.287 -0.0165 -0.0157 -0.1382
17344THY    CA220900   6.384   4.685   3.371  0.5874 -0.1588 -0.5883
17344THY    CP120901   6.486   4.650   3.487  0.6866  0.0877 -0.0372
17344THY    HP120902   6.465   4.546   3.512 -0.5619 -1.6286 -0.2548
17344THY    CP220903   6.453   4.738   3.616 -0.7236  0.2531  0.8635
17344THY    HP220904   6.350   4.729   3.652 -0.6903  0.3554  0.8973
17344THY    HP320905   6.472   4.842   3.589 -1.5209 -1.2347  0.6578
17344THY    HP420906   6.527   4.704   3.690 -1.1807 -0.0034 -0.7901
17344THY    CP320907   6.628   4.685   3.449 -0.7737 -0.5339 -0.6418
17344THY    HP520908   6.674   4.597   3.401  2.8632 -0.4770  1.0147
17344THY    HP620909   6.694   4.699   3.535 -2.2969  0.8171 -1.5879
17344THY    HP720910   6.635   4.776   3.387 -1.3564  1.5371  0.8972
17344THY    CA320911   6.338   4.815   3.351 -0.1445  0.5569  0.4280
17344THY    HA320912   6.378   4.887   3.422  2.2671  1.0623 -1.2842
17344THY    CA420913   6.248   4.836   3.242 -0.0643  0.5709 -0.5660
17344THY    HA420914   6.217   4.939   3.231  1.0416  2.3318 -0.0075
17344THY    CA520915   6.193   4.728   3.166 -0.5507 -0.1287 -0.1285
17344THY    CM120916   6.094   4.763   3.057 -0.3350 -0.0126  0.0739
17344THY    HM120917   6.007   4.696   3.056  0.9135  0.1861 -1.6154
17344THY    HM220918   6.143   4.762   2.959  0.7752  0.4964 -2.3716
17344THY    HM320919   6.053   4.864   3.071 -4.3695 -2.1229 -1.0787
17344THY    CA620920   6.241   4.601   3.191 -0.3847  0.8457 -0.4643
17344THY    HA620921   6.202   4.527   3.122  0.2030  1.0035 -0.9255
17345THY      O20922   2.758   0.773   1.852 -0.3616 -0.1295  0.2973
17345THY     HO20923   2.693   0.836   1.817 -0.7692  0.1831  0.0479
17345THY    CA120924   2.883   0.819   1.820  0.0916  0.3592  0.5500
17345THY    CA220925   3.004   0.743   1.830  0.0243 -0.2407  0.0156
17345THY    CP120926   3.010   0.604   1.884  0.2161 -0.0517 -0.5531
17345THY    HP120927   2.910   0.579   1.923  0.9427  1.8313 -0.7206
17345THY    CP220928   3.111   0.596   1.999  0.2651 -0.3741 -0.6748
17345THY    HP220929   3.217   0.594   1.969 -0.3272 -2.6092 -1.1519
17345THY    HP320930   3.087   0.508   2.060  2.2259  1.9682  0.2929
17345THY    HP420931   3.082   0.681   2.062 -2.3012 -1.3909 -0.7164
17345THY    CP320932   3.037   0.497   1.781 -0.6995  0.3194 -0.1024
17345THY    HP520933   3.039   0.402   1.836 -1.5555  1.5435  0.5687
17345THY    HP620934   3.137   0.519   1.743 -0.6475  0.1622 -0.5916
17345THY    HP720935   2.961   0.486   1.702 -0.3696 -0.0595  0.2871
17345THY    CA320936   3.125   0.805   1.796  0.0558  0.4052  0.4287
17345THY    HA320937   3.217   0.748   1.795  1.0212 -1.2166  1.9314
17345THY    CA420938   3.120   0.941   1.769 -0.4873 -0.4065 -0.7266
17345THY    HA420939   3.208   0.994   1.735 -0.7835  1.6726  1.2194
17345THY    CA520940   3.000   1.016   1.767  0.0541  0.0422 -1.3088
17345THY    CM120941   3.003   1.163   1.746 -0.8033 -0.2802  0.0030
17345THY    HM120942   3.104   1.191   1.714  0.1051 -0.2207 -2.9032
17345THY    HM220943   2.982   1.209   1.844  0.6044 -0.5338  1.2697
17345THY    HM320944   2.923   1.184   1.675 -0.0314 -1.2164 -0.1377
17345THY    CA620945   2.882   0.955   1.805  0.3879 -0.0095 -0.3206
17345THY    HA620946   2.787   1.007   1.805 -0.6050  1.5983 -2.0204
17346THY      O20947   8.112   6.278   7.569  0.0112 -0.2056  0.0035
17346THY     HO20948   8.060   6.360   7.564  0.6791  1.0982  0.5433
17346THY    CA120949   8.178   6.278   7.693  0.1868  0.0918  0.0064
17346THY    CA220950   8.277   6.183   7.719 -0.3517 -0.7739 -0.9746
17346THY    CP120951   8.321   6.091   7.605  0.4027  0.2309  0.4216
17346THY    HP120952   8.290   6.127   7.506  0.8620 -0.0652  0.0180
17346THY    CP220953   8.255   5.951   7.629 -0.2132 -1.0257 -0.5058
17346THY    HP220954   8.284   5.879   7.551  1.4371 -0.6491 -0.2809
17346THY    HP320955   8.147   5.967   7.618 -0.1159 -2.5577 -0.7263
17346THY    HP420956   8.285   5.908   7.724  1.4714  0.1578  2.9294
17346THY    CP320957   8.472   6.069   7.605 -0.5217 -0.3012  0.5729
17346THY    HP520958   8.520   6.154   7.556 -3.1289 -2.4935  0.9234
17346THY    HP620959   8.491   5.982   7.540 -1.9750  0.4685 -0.3792
17346THY    HP720960   8.514   6.046   7.704  1.2268 -0.6019  2.2875
17346THY    CA320961   8.325   6.174   7.856  0.2283  1.0577  0.6883
17346THY    HA320962   8.407   6.109   7.884 -0.1137  0.3134 -0.0822
17346THY    CA420963   8.270   6.257   7.956  0.1498 -0.0248 -0.4231
17346THY    HA420964   8.314   6.268   8.055  1.2087 -0.4732 -0.5000
17346THY    CA520965   8.167   6.345   7.925  0.0074  0.8357  1.0439
17346THY    CM120966   8.110   6.435   8.032 -0.3068 -0.2131  0.0205
17346THY    HM120967   8.033   6.372   8.078 -2.2582 -1.9531  1.0075
17346THY    HM220968   8.066   6.522   7.980  1.9482 -0.6540  0.9767
17346THY    HM320969   8.177   6.465   8.113 -1.1911  0.5727 -0.1022
17346THY    CA620970   8.121   6.354   7.792 -0.2028  0.2883 -0.1907
17346THY    HA620971   8.053   6.432   7.762 -1.0589 -0.7534 -1.3181
17347THY      O20972   5.659   7.509   5.290 -0.0257 -0.1538 -0.0788
17347THY     HO20973   5.742   7.463   5.310  1.0703  0.7424  2.1338
17347THY    CA120974   5.619   7.568   5.400 -0.2099 -0.5665 -0.4053
17347THY    CA220975   5.536   7.675   5.400 -0.2506  0.5450 -0.5403
17347THY    CP120976   5.493   7.744   5.277 -0.1920 -0.3688 -0.0246
17347THY    HP120977   5.517   7.692   5.184  2.1311 -0.6961  1.5077
17347THY    CP220978   5.552   7.885   5.253  0.4179  0.1625  0.6347
17347THY    HP220979   5.512   7.930   5.161 -0.0073  0.5621  1.0924
17347THY    HP320980   5.660   7.875   5.244  0.3493  1.2447 -1.6634
17347THY    HP420981   5.532   7.950   5.339 -1.8319 -0.6668  1.1580
17347THY    CP320982   5.336   7.764   5.270 -0.1815 -0.7963 -0.1929
17347THY    HP520983   5.294   7.784   5.171 -1.5052  0.0280  1.2362
17347THY    HP620984   5.298   7.842   5.337 -2.1529  1.4867 -2.8841
17347THY    HP720985   5.286   7.673   5.305  0.8473 -0.2008 -0.5581
17347THY    CA320986   5.498   7.729   5.524  0.8211  0.2714 -0.0447
17347THY    HA320987   5.430   7.814   5.533  1.1282 -0.1787  0.2572
17347THY    CA420988   5.542   7.673   5.640  0.8847 -0.4814 -0.2068
17347THY    HA420989   5.508   7.706   5.737  2.6599  0.2224 -0.3233
17347THY    CA520990   5.624   7.567   5.644  0.0615 -0.0916  0.6840
17347THY    CM120991   5.671   7.500   5.776  0.2290  0.3007  0.2687
17347THY    HM120992   5.629   7.400   5.797  0.7588  3.1099  0.5484
17347THY    HM220993   5.644   7.572   5.854  0.0357 -0.5707  1.1416
17347THY    HM320994   5.779   7.483   5.773  0.0624 -0.1494 -0.7729
17347THY    CA620995   5.662   7.512   5.519  0.5034 -0.5993  0.5949
17347THY    HA620996   5.721   7.421   5.528 -0.4270  1.1450  0.1254
17348THY      O20997   4.765   5.397   4.787  0.7947 -0.5356  0.1672
17348THY     HO20998   4.818   5.442   4.719 -1.0962 -0.6404  2.4107
17348THY    CA120999   4.702   5.494   4.857  0.5208 -1.2393  0.0552
17348THY    CA221000   4.687   5.481   4.993 -0.0777 -0.6570  0.1373
17348THY    CP121001   4.739   5.349   5.062 -0.0846 -0.4769 -0.1572
17348THY    HP121002   4.833   5.318   5.015  0.1370  1.0147 -1.9382
17348THY    CP221003   4.633   5.240   5.032 -0.3980 -0.2831 -0.2261
17348THY    HP221004   4.532   5.280   5.049 -0.3203  0.1347 -0.2105
17348THY    HP321005   4.640   5.151   5.095 -0.9654  1.0703  0.6559
17348THY    HP421006   4.645   5.212   4.927 -1.1794 -0.6825  0.8572
17348THY    CP321007   4.760   5.364   5.211 -0.8691  0.5735 -0.1487
17348THY    HP521008   4.668   5.345   5.268 -1.5086 -0.7914 -1.4036
17348THY    HP621009   4.798   5.463   5.237 -0.6690 -0.7776  0.1493
17348THY    HP721010   4.846   5.304   5.243 -1.6208 -0.4353 -1.8553
17348THY    CA321011   4.624   5.583   5.064 -0.0291  0.0229  0.4587
17348THY    HA321012   4.613   5.585   5.172 -1.2759 -0.0861  0.4328
17348THY    CA421013   4.572   5.694   4.988  0.2402 -0.2289  0.5123
17348THY    HA421014   4.513   5.772   5.036  0.9537 -2.0999  2.2666
17348THY    CA521015   4.594   5.701   4.855  0.0115 -0.6888  0.7241
17348THY    CM121016   4.543   5.815   4.779  0.0462  0.4618 -1.0015
17348THY    HM121017   4.436   5.834   4.784  0.0162 -2.7641  0.2473
17348THY    HM221018   4.581   5.812   4.676 -1.4260 -0.1507  0.1196
17348THY    HM321019   4.591   5.904   4.823 -0.3474 -0.2590 -0.4215
17348THY    CA621020   4.655   5.602   4.786 -0.7903 -0.7967  0.9380
17348THY    HA621021   4.666   5.602   4.678  1.8873 -0.6226 -0.9836
17349THY      O21022   6.793   8.460   7.599 -0.2600  0.3076  0.4010
17349THY     HO21023   6.795   8.492   7.691 -0.2094  0.5822 -0.3760
17349THY    CA121024   6.819   8.567   7.519  0.1456 -0.3905  0.4854
17349THY    CA221025   6.747   8.589   7.405  0.0916  0.2076 -0.2697
17349THY    CP121026   6.634   8.499   7.368  0.5669 -0.4821  0.0945
17349THY    HP121027   6.644   8.401   7.415 -0.6359 -0.0753  0.1512
17349THY    CP221028   6.621   8.478   7.220  0.1947  0.6884  0.2162
17349THY    HP221029   6.716   8.436   7.186  0.6148  3.1868 -1.0388
17349THY    HP321030   6.575   8.566   7.173  0.2836 -1.0950 -0.6309
17349THY    HP421031   6.548   8.399   7.199 -0.2292  1.4626  0.3936
17349THY    CP321032   6.495   8.551   7.425  0.1072  0.7062  0.0557
17349THY    HP521033   6.421   8.473   7.404  0.8401  1.7851 -0.9601
17349THY    HP621034   6.464   8.641   7.370 -3.3695  1.0767 -0.7762
17349THY    HP721035   6.504   8.579   7.531  0.1956  0.5492  0.6384
17349THY    CA321036   6.776   8.708   7.331 -0.3243 -0.4955  0.5070
17349THY    HA321037   6.731   8.737   7.237  0.6148 -0.7350  1.2581
17349THY    CA421038   6.887   8.789   7.368 -0.1892 -0.0771 -0.2448
17349THY    HA421039   6.918   8.873   7.306 -2.4975 -0.5875  0.2776
17349THY    CA521040   6.959   8.766   7.486 -0.0071 -0.1832  0.8557
17349THY    CM121041   7.071   8.856   7.526 -0.3139 -0.0642  0.2081
17349THY    HM121042   7.136   8.893   7.446 -1.4152 -0.7541  0.6917
17349THY    HM221043   7.134   8.822   7.609  1.9075 -0.6608  2.5556
17349THY    HM321044   7.024   8.940   7.579  0.0848  0.5006  0.0832
17349THY    CA621045   6.918   8.660   7.561  0.3008 -0.7114 -0.5888
17349THY    HA621046   6.971   8.650   7.655  2.0563 -1.3013  2.0339
17350THY      O21047   3.227   5.295   5.483 -0.1396  0.8589  0.5702
17350THY     HO21048   3.312   5.273   5.523  1.1212 -0.2269  3.0781
17350THY    CA121049   3.258   5.360   5.368 -0.6315 -0.0643  0.7115
17350THY    CA221050   3.165   5.378   5.265 -1.0564  0.5003  0.8019
17350THY    CP121051   3.033   5.309   5.259  0.6036 -0.2162  0.8291
17350THY    HP121052   3.030   5.245   5.348  0.7251 -0.2212  0.8150
17350THY    CP221053   3.027   5.205   5.150 -0.5038  0.1567 -0.3262
17350THY    HP221054   3.080   5.115   5.184  0.4026 -0.4115 -0.0286
17350THY    HP321055   3.085   5.246   5.066 -1.9074 -0.9020 -0.4229
17350THY    HP421056   2.922   5.179   5.130 -1.1045  1.4662  0.9808
17350THY    CP321057   2.911   5.408   5.253  0.1626 -0.1591 -0.3087
17350THY    HP521058   2.899   5.468   5.344  0.0878 -0.2773 -0.1438
17350THY    HP621059   2.825   5.341   5.246 -0.1924  1.0100 -0.0113
17350THY    HP721060   2.914   5.478   5.169  0.9339  2.1992  2.7540
17350THY    CA321061   3.207   5.463   5.157  0.4820 -0.1227 -0.7404
17350THY    HA321062   3.133   5.472   5.078 -2.7829  2.7271 -0.6400
17350THY    CA421063   3.337   5.515   5.152  0.3540 -0.1877  0.4963
17350THY    HA421064   3.365   5.572   5.064 -1.7499 -0.4759  1.1921
17350THY    CA521065   3.428   5.488   5.258  0.3198 -0.4585  0.4070
17350THY    CM121066   3.556   5.560   5.260 -0.2425  0.6488 -0.2517
17350THY    HM121067   3.634   5.499   5.307  0.0680  2.2474  1.2665
17350THY    HM221068   3.545   5.653   5.318 -0.3975  1.0556 -0.5226
17350THY    HM321069   3.593   5.609   5.169  0.7423  0.9812 -0.3499
17350THY    CA621070   3.385   5.409   5.366 -0.4784  0.8910 -0.2545
17350THY    HA621071   3.462   5.401   5.443  0.9441 -0.2581  1.4083
17351THY      O21072   4.419   4.458   3.644  0.7704  0.2483 -0.1353
17351THY     HO21073   4.376   4.373   3.627 -2.0830  1.3162  0.9706
17351THY    CA121074   4.538   4.459   3.585  0.4739 -0.4967  0.2753
17351THY    CA221075   4.586   4.567   3.504  0.2479 -0.0728 -0.2555
17351THY    CP121076   4.498   4.683   3.473  0.0170  0.0246 -0.7148
17351THY    HP121077   4.405   4.701   3.528 -1.1888 -2.5543  1.8071
17351THY    CP221078   4.447   4.682   3.325 -0.9007  0.6602 -0.1907
17351THY    HP221079   4.390   4.588   3.313 -0.1191  1.3708 -0.7722
17351THY    HP321080   4.529   4.669   3.254 -1.0675  0.0054  2.0758
17351THY    HP421081   4.390   4.769   3.291  3.3531  0.4653  2.8125
17351THY    CP321082   4.574   4.815   3.511  0.2958  0.5272  0.2537
17351THY    HP521083   4.667   4.808   3.454  1.2961  2.2445 -1.3929
17351THY    HP621084   4.605   4.816   3.616 -1.5463  1.1192  0.2379
17351THY    HP721085   4.497   4.887   3.480  0.1632 -0.4280 -0.2856
17351THY    CA321086   4.705   4.543   3.421 -0.0555 -0.0937 -0.0944
17351THY    HA321087   4.740   4.609   3.342 -0.1926  0.5239  0.7440
17351THY    CA421088   4.779   4.424   3.444  0.7834  0.0793 -0.6253
17351THY    HA421089   4.861   4.399   3.377 -0.0081 -1.0747 -0.1998
17351THY    CA521090   4.742   4.340   3.548 -0.0737 -0.0069  0.6088
17351THY    CM121091   4.819   4.214   3.572 -0.0271  0.0881 -0.3048
17351THY    HM121092   4.918   4.230   3.527 -0.3778  0.0594  2.2845
17351THY    HM221093   4.772   4.127   3.526 -2.1502  0.5457  0.5310
17351THY    HM321094   4.817   4.180   3.676  0.4619 -1.0853 -4.5073
17351THY    CA621095   4.622   4.347   3.615  0.7161 -0.1932 -0.2039
17351THY    HA621096   4.603   4.274   3.693  1.4988 -0.5775 -0.8353
17352THY      O21097   1.863   0.481   6.284 -0.0087  0.0220 -0.5180
17352THY     HO21098   1.801   0.490   6.210  1.2206 -1.0114 -0.1628
17352THY    CA121099   1.967   0.418   6.228  0.1357  1.0253  0.6559
17352THY    CA221100   2.077   0.381   6.303 -0.9609  0.2502  0.8438
17352THY    CP121101   2.082   0.413   6.457  0.3968  0.1091 -0.0140
17352THY    HP121102   1.983   0.388   6.499  0.1382 -0.0720  0.6767
17352THY    CP221103   2.101   0.561   6.483  0.0793  0.3976 -0.0725
17352THY    HP221104   2.194   0.601   6.442 -0.2947  0.3724  0.7849
17352THY    HP321105   2.091   0.576   6.591  1.8814  0.6865 -0.7779
17352THY    HP421106   2.021   0.614   6.430 -0.6002  2.5038  1.0918
17352THY    CP321107   2.189   0.340   6.540  0.4640 -0.6429  0.2934
17352THY    HP521108   2.290   0.354   6.499  0.1825 -1.2922  0.4400
17352THY    HP621109   2.162   0.234   6.527  0.0151 -1.9932  0.5623
17352THY    HP721110   2.183   0.368   6.646 -0.7609 -0.4235 -0.6935
17352THY    CA321111   2.179   0.304   6.245 -0.5691 -0.6853  0.5359
17352THY    HA321112   2.259   0.269   6.310 -1.3706 -0.8536 -1.7700
17352THY    CA421113   2.184   0.276   6.108  0.4559  0.1049  0.5124
17352THY    HA421114   2.266   0.212   6.076  0.0611  1.4134 -0.7209
17352THY    CA521115   2.074   0.317   6.032  0.3513 -0.4443 -0.0393
17352THY    CM121116   2.077   0.294   5.880  0.2727 -0.0587 -0.4954
17352THY    HM121117   2.180   0.272   5.850  0.3828  1.3290 -2.0744
17352THY    HM221118   2.053   0.387   5.827  0.5951 -0.3715 -0.5868
17352THY    HM321119   2.012   0.211   5.848  0.3228 -1.2912 -0.0797
17352THY    CA621120   1.963   0.391   6.092  0.1037  0.6467  0.3027
17352THY    HA621121   1.879   0.415   6.028  1.2911 -0.7288  0.9542
17353THY      O21122   8.783   8.235   6.759 -0.3469  0.1321 -0.1641
17353THY     HO21123   8.753   8.195   6.842 -3.0486 -0.7757 -0.1753
17353THY    CA121124   8.788   8.134   6.667 -0.0446  0.0747 -0.4124
17353THY    CA221125   8.911   8.108   6.604  0.2250 -0.4746 -0.1695
17353THY    CP121126   9.041   8.181   6.646  1.1610  0.4405 -0.5174
17353THY    HP121127   9.015   8.263   6.713  2.6408 -0.8467  1.0754
17353THY    CP221128   9.116   8.248   6.524 -0.7526 -0.3351 -0.6857
17353THY    HP221129   9.215   8.284   6.554  0.3771 -1.6353 -2.5560
17353THY    HP321130   9.060   8.329   6.474 -0.3248  1.3028  0.6849
17353THY    HP421131   9.145   8.171   6.452  1.1750  1.4208 -1.7025
17353THY    CP321132   9.147   8.096   6.717 -0.2214  0.6554  0.0542
17353THY    HP521133   9.202   8.039   6.641 -1.2931 -1.6850  1.9664
17353THY    HP621134   9.109   8.024   6.790  3.9392  1.1339 -1.9912
17353THY    HP721135   9.227   8.150   6.770  0.2280  0.4029 -0.3485
17353THY    CA321136   8.911   8.018   6.498 -0.0007 -0.7787  0.1222
17353THY    HA321137   9.005   7.984   6.455 -1.0845 -1.7144 -1.9036
17353THY    CA421138   8.795   7.957   6.454 -0.4801  0.1092  0.4094
17353THY    HA421139   8.798   7.884   6.373 -0.6704 -0.1699  0.7043
17353THY    CA521140   8.671   7.990   6.512 -0.3693 -0.2079 -0.0876
17353THY    CM121141   8.536   7.929   6.470 -0.1492 -0.0253  0.6312
17353THY    HM121142   8.469   8.015   6.460  1.9460  1.1304  2.5113
17353THY    HM221143   8.486   7.855   6.534  0.2918 -1.5236 -1.0545
17353THY    HM321144   8.536   7.871   6.377  1.2585  0.1729  0.2891
17353THY    CA621145   8.668   8.083   6.618  0.0640  0.0168  0.0733
17353THY    HA621146   8.575   8.102   6.671  0.2481  0.1205  0.7022
17354THY      O21147   5.451   5.632   3.577  0.1658 -0.5859 -0.0551
17354THY     HO21148   5.501   5.574   3.638 -0.0076  0.1231  0.5294
17354THY    CA121149   5.539   5.703   3.512  0.3391  0.7200  0.8532
17354THY    CA221150   5.501   5.785   3.405  0.1197 -0.2999 -1.0269
17354THY    CP121151   5.351   5.797   3.365 -0.4326 -0.2848  0.4029
17354THY    HP121152   5.291   5.766   3.451 -0.2236 -0.5994 -0.9829
17354THY    CP221153   5.320   5.717   3.243 -0.1914 -0.1957  0.0446
17354THY    HP221154   5.363   5.775   3.161 -0.0406  1.2296  2.0821
17354THY    HP321155   5.211   5.704   3.232  0.2888 -3.3643 -2.4123
17354THY    HP421156   5.363   5.617   3.242 -0.9062 -0.0273 -0.2749
17354THY    CP321157   5.320   5.945   3.342  0.1886 -0.2432  0.2108
17354THY    HP521158   5.346   6.000   3.433 -1.2122  1.1227 -1.2745
17354THY    HP621159   5.210   5.944   3.334  0.2513 -1.4411  0.9808
17354THY    HP721160   5.357   5.994   3.251 -1.3450 -0.9532  0.1218
17354THY    CA321161   5.598   5.854   3.339 -0.5380  0.3338 -0.3642
17354THY    HA321162   5.579   5.928   3.262 -0.3335  0.4510 -0.1898
17354THY    CA421163   5.734   5.837   3.369 -0.1560  0.2931  0.4338
17354THY    HA421164   5.812   5.877   3.305  0.3074  1.1755  0.9954
17354THY    CA521165   5.774   5.747   3.478  0.2235  0.2834 -0.8659
17354THY    CM121166   5.914   5.729   3.517 -0.7767 -0.7365 -0.6808
17354THY    HM121167   5.919   5.738   3.626  1.8014 -0.7753 -0.8524
17354THY    HM221168   5.988   5.796   3.471 -0.4556  0.3519 -0.2736
17354THY    HM321169   5.952   5.629   3.491  2.1326  0.9868 -0.1310
17354THY    CA621170   5.669   5.684   3.544  0.5600  0.5791  0.3643
17354THY    HA621171   5.686   5.624   3.634  0.1640 -0.4014 -1.2803
17355THY      O21172   5.086   2.569   6.767 -0.2821 -0.6105  0.1372
17355THY     HO21173   5.009   2.572   6.827  0.8595  0.9009  1.6524
17355THY    CA121174   5.073   2.474   6.676 -0.3160  0.0642  0.1295
17355THY    CA221175   5.186   2.442   6.591 -0.4741 -0.5457 -0.2066
17355THY    CP121176   5.306   2.527   6.586  0.2032 -0.5593 -0.2496
17355THY    HP121177   5.296   2.603   6.664 -1.5677 -0.3495 -0.6395
17355THY    CP221178   5.330   2.594   6.451 -0.3281  0.1237  0.0112
17355THY    HP221179   5.317   2.519   6.373 -1.0195  0.4307 -0.1896
17355THY    HP321180   5.431   2.636   6.441 -0.7460 -3.8977  0.4023
17355THY    HP421181   5.260   2.676   6.429  0.0062 -0.9075  0.0339
17355THY    CP321182   5.432   2.446   6.631 -0.0433 -0.0496 -0.2549
17355THY    HP521183   5.418   2.391   6.724  1.7476 -1.4490 -3.3990
17355THY    HP621184   5.518   2.514   6.632  0.9896 -0.9900 -1.4750
17355THY    HP721185   5.452   2.372   6.552 -0.8367 -0.5145  0.0212
17355THY    CA321186   5.170   2.339   6.502 -0.3607  0.0239 -0.2704
17355THY    HA321187   5.251   2.306   6.437 -0.8526 -1.3792  1.2159
17355THY    CA421188   5.049   2.264   6.492  0.0637 -0.1803 -0.2263
17355THY    HA421189   5.047   2.177   6.427  1.3725  1.0782 -1.2350
17355THY    CA521190   4.941   2.300   6.568 -0.0444 -0.3853 -0.0193
17355THY    CM121191   4.818   2.209   6.568  0.1522 -0.1231 -0.6699
17355THY    HM121192   4.810   2.154   6.474 -2.7960 -0.4789  0.2077
17355THY    HM221193   4.724   2.265   6.573 -0.8058 -1.1562 -2.1063
17355THY    HM321194   4.814   2.144   6.657  0.0778 -0.2393 -0.8239
17355THY    CA621195   4.953   2.399   6.660  0.2458  0.3827 -0.0077
17355THY    HA621196   4.864   2.420   6.718 -1.6809 -2.4948  0.2970
17356THY      O21197   4.951   0.560   7.253  0.0715  0.1408 -0.7447
17356THY     HO21198   4.949   0.563   7.351  1.6973  0.1794  0.1131
17356THY    CA121199   5.059   0.487   7.240 -0.2732 -0.1673 -0.0959
17356THY    CA221200   5.084   0.418   7.118  0.1868  0.5397  0.2826
17356THY    CP121201   4.993   0.442   6.998 -0.0034  0.3968  0.8431
17356THY    HP121202   4.927   0.530   7.001 -0.8107 -1.4028  0.3442
17356THY    CP221203   4.909   0.321   6.969  0.6292 -0.2472 -0.2601
17356THY    HP221204   4.963   0.227   6.954  0.7326  1.8629 -0.5742
17356THY    HP321205   4.857   0.335   6.873 -0.2739  0.0148 -1.6256
17356THY    HP421206   4.827   0.293   7.036 -0.3807  0.0557  2.9783
17356THY    CP321207   5.075   0.483   6.873  0.1174 -0.3052  0.3549
17356THY    HP521208   5.124   0.580   6.888 -2.0527  0.1884  1.4345
17356THY    HP621209   5.010   0.493   6.785 -0.3317  0.1283  1.4147
17356THY    HP721210   5.153   0.412   6.846  0.6209 -0.3272  0.9052
17356THY    CA321211   5.208   0.345   7.111 -0.2161  0.0357 -0.3594
17356THY    HA321212   5.240   0.296   7.019 -1.5447 -0.5031 -0.2417
17356THY    CA421213   5.303   0.362   7.209  0.5520  0.3500 -0.4406
17356THY    HA421214   5.403   0.320   7.211  1.0749  1.2640  0.7917
17356THY    CA521215   5.258   0.413   7.332 -0.5017  0.0386 -0.4490
17356THY    CM121216   5.354   0.423   7.437 -0.1262 -0.6497  0.5380
17356THY    HM121217   5.378   0.524   7.473 -0.2333  0.1703  0.2833
17356THY    HM221218   5.442   0.361   7.420 -0.4737  0.0699 -0.1783
17356THY    HM321219   5.309   0.373   7.524  1.3045  0.6930  1.4761
17356THY    CA621220   5.137   0.482   7.350  0.8510 -0.6346 -0.0868
17356THY    HA621221   5.122   0.539   7.441 -2.7881 -1.3183  0.3146
17357THY      O21222   1.071   6.728   5.750  0.1137  0.3591 -0.6387
17357THY     HO21223   1.162   6.758   5.734  1.6379  5.2224 -1.7198
17357THY    CA121224   1.021   6.813   5.843  0.4857 -0.6839 -0.0080
17357THY    CA221225   0.887   6.809   5.892  0.4995  0.1864  0.4316
17357THY    CP121226   0.799   6.696   5.846  0.4200  0.1682 -0.0532
17357THY    HP121227   0.860   6.607   5.829  0.8705 -0.7019  0.4184
17357THY    CP221228   0.734   6.736   5.709  0.3660 -0.0402 -0.4259
17357THY    HP221229   0.807   6.760   5.630 -0.6582 -1.6172 -2.2271
17357THY    HP321230   0.673   6.827   5.713 -1.0326  1.3803 -1.3878
17357THY    HP421231   0.682   6.654   5.659  0.7633 -1.6013  0.2314
17357THY    CP321232   0.676   6.662   5.936 -0.2739 -0.1648 -0.3957
17357THY    HP521233   0.640   6.562   5.908  3.0857  2.0218 -2.4246
17357THY    HP621234   0.596   6.736   5.934 -0.7209 -1.3510 -0.8782
17357THY    HP721235   0.713   6.657   6.039 -0.4145 -0.1720 -3.7649
17357THY    CA321236   0.842   6.906   5.986  0.0758  0.0524  1.1031
17357THY    HA321237   0.744   6.901   6.031  0.7507  1.5575  0.6803
17357THY    CA421238   0.934   7.009   6.018  0.1173 -0.8297 -0.0893
17357THY    HA421239   0.896   7.087   6.083  0.2516 -1.7209  0.7417
17357THY    CA521240   1.066   7.017   5.964 -0.4377 -0.1246  0.3614
17357THY    CM121241   1.160   7.135   5.986  0.1462 -0.0785 -0.0858
17357THY    HM121242   1.262   7.103   5.964  0.8780 -0.8785  2.5154
17357THY    HM221243   1.169   7.161   6.092  1.0719  0.6219 -2.9172
17357THY    HM321244   1.141   7.212   5.910 -0.7610 -1.7760 -1.9118
17357THY    CA621245   1.102   6.916   5.876 -0.1205  0.1808 -0.1235
17357THY    HA621246   1.201   6.933   5.833  0.1600  1.1063  0.7097
17358THY      O21247   0.692   3.406   2.988  0.1838  0.0619 -0.1396
17358THY     HO21248   0.733   3.418   2.900 -1.4406 -0.3804  4.6822
17358THY    CA121249   0.740   3.516   3.060 -0.6774  0.3336 -0.0102
17358THY    CA221250   0.658   3.597   3.138  0.0419  0.6181 -0.9697
17358THY    CP121251   0.512   3.562   3.158 -0.1053 -0.4769 -0.2385
17358THY    HP121252   0.491   3.455   3.145  0.9386 -1.2324 -0.3604
17358THY    CP221253   0.434   3.645   3.054 -0.1362 -0.6005 -0.5520
17358THY    HP221254   0.417   3.747   3.089  0.5683 -3.3959  0.6242
17358THY    HP321255   0.339   3.594   3.031  0.2444 -0.1799 -1.4657
17358THY    HP421256   0.489   3.661   2.961  2.9004  1.5360  3.1579
17358THY    CP321257   0.455   3.596   3.298  0.3896 -0.3372  0.5780
17358THY    HP521258   0.428   3.702   3.307 -1.3600 -1.3878  0.2632
17358THY    HP621259   0.535   3.565   3.366 -0.4955  1.4281  1.9746
17358THY    HP721260   0.364   3.542   3.323  0.4760 -0.0979  0.5431
17358THY    CA321261   0.711   3.713   3.198 -0.3026 -0.1816 -0.7575
17358THY    HA321262   0.639   3.783   3.237 -3.7641 -1.9099 -3.0826
17358THY    CA421263   0.848   3.737   3.193  0.1024  0.0761  0.2412
17358THY    HA421264   0.889   3.828   3.237  0.1743  1.2671 -0.3403
17358THY    CA521265   0.931   3.648   3.125  0.0116  0.1665 -0.0167
17358THY    CM121266   1.077   3.680   3.097 -0.7627 -0.4166  0.3449
17358THY    HM121267   1.084   3.702   2.990 -1.3116 -0.5668 -0.1721
17358THY    HM221268   1.133   3.588   3.114  1.4857 -3.3221  1.0457
17358THY    HM321269   1.112   3.754   3.170 -0.9308  0.0937 -0.0714
17358THY    CA621270   0.882   3.539   3.054 -0.3845  0.6356 -0.9037
17358THY    HA621271   0.951   3.472   3.006  1.0484  0.5991  0.5399
17359THY      O21272   6.256   3.870   4.721 -0.2217  0.4972 -0.5511
17359THY     HO21273   6.283   3.962   4.736  1.1563  1.7398 -1.1139
17359THY    CA121274   6.324   3.816   4.818  0.5647  0.3859 -0.9908
17359THY    CA221275   6.305   3.685   4.870 -0.4958  0.8087 -0.2865
17359THY    CP121276   6.196   3.589   4.800  0.7286 -0.4491  0.4455
17359THY    HP121277   6.180   3.589   4.692  0.3621 -0.4177 -0.8099
17359THY    CP221278   6.062   3.614   4.866  0.1980 -0.0509  0.1993
17359THY    HP221279   5.997   3.530   4.839 -1.4718 -0.5609  1.6016
17359THY    HP321280   6.025   3.717   4.854  0.1687  0.1408  0.2119
17359THY    HP421281   6.078   3.609   4.975 -0.6072  0.0229 -1.6025
17359THY    CP321282   6.235   3.444   4.830  0.2564  0.6141  0.2331
17359THY    HP521283   6.164   3.369   4.795 -0.4251 -0.7409  1.4523
17359THY    HP621284   6.256   3.430   4.937  0.9582  0.1169 -3.3898
17359THY    HP721285   6.325   3.423   4.772 -0.2094 -1.2364  2.8426
17359THY    CA321286   6.381   3.652   4.986  1.0441  0.0878  0.1881
17359THY    HA321287   6.370   3.559   5.042 -2.8698 -1.0596 -0.1987
17359THY    CA421288   6.470   3.746   5.039 -0.6533 -0.2239  0.3537
17359THY    HA421289   6.524   3.712   5.127  0.7304 -1.3138 -0.3598
17359THY    CA521290   6.490   3.874   4.987  0.0885  0.0469 -0.3594
17359THY    CM121291   6.584   3.974   5.041  0.2671  0.0554 -0.0662
17359THY    HM121292   6.537   4.049   5.106  1.4951  2.6351 -1.4023
17359THY    HM221293   6.634   4.037   4.966  1.7785  0.5286 -0.6638
17359THY    HM321294   6.660   3.925   5.102 -2.0410  2.6696 -0.6307
17359THY    CA621295   6.413   3.910   4.870 -0.7580 -0.4216 -0.2044
17359THY    HA621296   6.431   4.009   4.828 -0.5672  1.9413  0.8182
17360THY      O21297   1.717   7.850   6.902 -0.8165 -0.1367 -0.3237
17360THY     HO21298   1.739   7.888   6.989 -0.1771  0.3983 -1.8276
17360THY    CA121299   1.804   7.898   6.810  0.6319  0.4626  0.2742
17360THY    CA221300   1.840   7.833   6.696 -0.0366  0.9089  0.4223
17360THY    CP121301   1.787   7.696   6.652 -0.4490 -0.1704 -0.6390
17360THY    HP121302   1.716   7.668   6.731 -0.6079 -0.0807  0.0005
17360THY    CP221303   1.899   7.594   6.649  1.4106  0.8594 -0.7529
17360THY    HP221304   1.932   7.581   6.753 -0.5962  1.6120 -0.1907
17360THY    HP321305   1.980   7.617   6.578  0.0805 -0.1143  1.2369
17360THY    HP421306   1.859   7.499   6.610  0.8514  0.3703 -0.3228
17360THY    CP321307   1.714   7.690   6.511 -0.0627 -0.1864  0.6573
17360THY    HP521308   1.655   7.782   6.506 -1.1206  0.8388  0.0724
17360THY    HP621309   1.650   7.604   6.486  0.5955  1.0642 -0.2390
17360THY    HP721310   1.775   7.682   6.421 -2.1849 -1.5754 -1.3314
17360THY    CA321311   1.933   7.897   6.613 -0.0862  0.0474 -0.2232
17360THY    HA321312   1.963   7.845   6.522 -1.4509  0.1998 -1.3219
17360THY    CA421313   1.987   8.027   6.637 -0.3272 -0.4850  0.3782
17360THY    HA421314   2.052   8.069   6.562  0.6656 -0.5793 -1.2320
17360THY    CA521315   1.938   8.092   6.745 -0.3368  1.0669  0.6214
17360THY    CM121316   1.981   8.225   6.784 -0.0971  0.7197 -0.3214
17360THY    HM121317   2.040   8.226   6.876 -1.7387  1.9623 -3.6425
17360THY    HM221318   1.906   8.305   6.789 -1.2993 -1.3612 -1.2380
17360THY    HM321319   2.043   8.258   6.700  1.6879  1.1481 -2.3832
17360THY    CA621320   1.856   8.024   6.830 -0.6022  0.1560  0.1894
17360THY    HA621321   1.833   8.076   6.922  0.8897  0.5172  0.2363
17361THY      O21322   5.258   6.423   2.433 -0.8435  0.0329  0.6203
17361THY     HO21323   5.336   6.464   2.394 -0.7570 -0.0151  0.4126
17361THY    CA121324   5.220   6.328   2.339 -0.0444 -0.1698  0.9701
17361THY    CA221325   5.116   6.231   2.364 -0.3248 -0.0190 -0.9496
17361THY    CP121326   5.044   6.246   2.500 -0.7423 -1.0827  0.3629
17361THY    HP121327   5.089   6.313   2.573 -0.1910 -2.1343  1.1796
17361THY    CP221328   5.031   6.107   2.576 -0.0704  0.7909 -0.8086
17361THY    HP221329   4.971   6.123   2.666  2.0762  1.7282  3.7478
17361THY    HP321330   5.126   6.076   2.621 -0.6688  1.3506 -1.8834
17361THY    HP421331   4.992   6.024   2.515 -0.4625  0.7037 -0.5641
17361THY    CP321332   4.903   6.301   2.461 -0.5501  0.0659  0.0760
17361THY    HP521333   4.916   6.404   2.423  2.2101  1.4988  0.3524
17361THY    HP621334   4.841   6.298   2.551  0.0514  0.5091  0.6423
17361THY    HP721335   4.865   6.235   2.382 -0.0136  1.7501 -2.3602
17361THY    CA321336   5.084   6.138   2.265 -0.7468  0.5656 -0.1082
17361THY    HA321337   5.001   6.069   2.270 -1.6465 -2.2311  0.6342
17361THY    CA421338   5.151   6.152   2.145  0.5130 -0.0706 -0.2657
17361THY    HA421339   5.125   6.078   2.069  2.2058  0.1433 -1.1471
17361THY    CA521340   5.264   6.237   2.125 -0.7679 -0.2802 -0.0916
17361THY    CM121341   5.345   6.232   1.998 -0.5274 -0.6853  0.2259
17361THY    HM121342   5.310   6.300   1.920  0.6776  0.7298  2.6291
17361THY    HM221343   5.337   6.130   1.961 -1.8561 -0.6438  0.2881
17361THY    HM321344   5.450   6.252   2.021  0.1284 -1.6453 -1.8606
17361THY    CA621345   5.298   6.327   2.223  0.3790  0.3072 -0.3832
17361THY    HA621346   5.381   6.395   2.209 -0.5464 -0.8877  0.5537
17362THY      O21347   8.725   4.385   3.615 -0.3084 -0.6319  0.3423
17362THY     HO21348   8.733   4.323   3.690 -0.9215 -0.1653  0.8211
17362THY    CA121349   8.839   4.376   3.543  0.1190  0.0112 -0.3076
17362THY    CA221350   8.857   4.458   3.435  0.0658 -0.0388 -0.1907
17362THY    CP121351   8.752   4.556   3.386  0.0678 -0.7548 -0.9969
17362THY    HP121352   8.668   4.562   3.457  0.7461  0.0726 -1.1430
17362THY    CP221353   8.703   4.513   3.245 -0.0287  0.8223  0.0208
17362THY    HP221354   8.784   4.491   3.175 -0.5928 -0.2316  1.2180
17362THY    HP321355   8.634   4.587   3.203 -1.6456  0.0753 -1.8159
17362THY    HP421356   8.646   4.421   3.263 -3.1715  1.4435  1.9518
17362THY    CP321357   8.807   4.699   3.386  0.4439  0.6767 -0.6287
17362THY    HP521358   8.863   4.724   3.295 -0.1967  0.6948  0.9920
17362THY    HP621359   8.874   4.712   3.471  1.5736 -0.5389  2.2005
17362THY    HP721360   8.733   4.780   3.393  3.6132 -0.9247  2.6765
17362THY    CA321361   8.982   4.450   3.364 -0.7326  0.2334  0.1140
17362THY    HA321362   9.000   4.517   3.281 -0.1599  0.1189 -0.1757
17362THY    CA421363   9.080   4.356   3.406  0.5378  0.9142 -0.5734
17362THY    HA421364   9.167   4.346   3.342  2.4489  2.9731  1.6042
17362THY    CA521365   9.059   4.272   3.516  0.3343 -0.8563 -0.2762
17362THY    CM121366   9.160   4.162   3.558 -0.0698 -0.3837  0.6500
17362THY    HM121367   9.245   4.171   3.489 -0.0546 -0.3284  0.9269
17362THY    HM221368   9.116   4.063   3.539  0.3045 -1.8316  0.7378
17362THY    HM321369   9.190   4.156   3.663  1.0025 -0.7697 -2.0742
17362THY    CA621370   8.939   4.290   3.583  0.6038  0.3466  0.0569
17362THY    HA621371   8.914   4.226   3.667  0.5063  0.4757  0.2613
17363THY      O21372   6.722   2.322   6.127 -0.1050  0.4836 -0.2594
17363THY     HO21373   6.787   2.253   6.107 -0.9654 -1.1427 -0.6387
17363THY    CA121374   6.612   2.253   6.101 -0.7936 -0.1999  0.1313
17363THY    CA221375   6.492   2.301   6.046  0.2162  0.1574  0.2615
17363THY    CP121376   6.476   2.449   6.013 -0.1672  0.0103 -1.0466
17363THY    HP121377   6.574   2.496   5.994 -1.9185 -0.0811  2.9456
17363THY    CP221378   6.407   2.517   6.140 -0.3557  0.9337  0.5866
17363THY    HP221379   6.403   2.626   6.127  1.8691 -1.4472  0.4813
17363THY    HP321380   6.453   2.489   6.235 -0.2622  0.7728  0.1901
17363THY    HP421381   6.300   2.495   6.139 -0.5601  0.3665  1.5774
17363THY    CP321382   6.402   2.481   5.877  0.2679 -0.4228  0.2517
17363THY    HP521383   6.428   2.581   5.839  2.8635 -1.1425 -0.6044
17363THY    HP621384   6.294   2.463   5.868 -0.0197  0.9501  1.1339
17363THY    HP721385   6.444   2.413   5.802  0.3706 -0.1575  0.0209
17363THY    CA321386   6.388   2.209   6.024 -0.0383  0.6834 -0.3876
17363THY    HA321387   6.293   2.242   5.983  0.2848  1.2793  1.4124
17363THY    CA421388   6.407   2.072   6.054 -0.1898  0.6330 -0.3616
17363THY    HA421389   6.325   2.008   6.021 -1.7087  0.3467  1.6199
17363THY    CA521390   6.524   2.029   6.112 -0.3436  1.0643  1.1567
17363THY    CM121391   6.532   1.878   6.138  0.2944 -0.2478 -0.1062
17363THY    HM121392   6.444   1.825   6.101  1.4706 -0.1740 -2.1847
17363THY    HM221393   6.539   1.852   6.244 -1.2946 -0.5641 -2.0425
17363THY    HM321394   6.619   1.825   6.098  1.2010  1.9302 -0.3697
17363THY    CA621395   6.628   2.117   6.136 -0.9754  0.0448  0.0115
17363THY    HA621396   6.718   2.077   6.181 -1.1420 -0.4207 -0.8963
17364THY      O21397   0.841   8.274   5.914  0.0547 -0.2622  0.9605
17364THY     HO21398   0.750   8.245   5.931  0.9889  1.0086 -1.5201
17364THY    CA121399   0.908   8.281   6.032  0.1438 -0.2013  0.1074
17364THY    CA221400   1.027   8.359   6.036 -0.2293  0.3423  0.0227
17364THY    CP121401   1.082   8.432   5.917 -0.4642 -0.3640 -0.8570
17364THY    HP121402   1.018   8.422   5.828  2.7192 -3.0536  0.5316
17364THY    CP221403   1.234   8.393   5.891 -0.2959 -0.1739 -0.4549
17364THY    HP221404   1.255   8.286   5.884 -0.5500 -4.9975 -0.3839
17364THY    HP321405   1.300   8.441   5.965  1.2275 -2.3455  1.0031
17364THY    HP421406   1.253   8.438   5.793 -1.4407 -0.4463 -0.5347
17364THY    CP321407   1.078   8.582   5.942  0.1176  0.3292  0.1879
17364THY    HP521408   1.089   8.628   5.843 -2.4366 -2.1458 -3.9047
17364THY    HP621409   1.159   8.614   6.009  0.6106 -0.1743  0.0031
17364THY    HP721410   0.983   8.623   5.980  0.1869  0.4587  0.2333
17364THY    CA321411   1.092   8.362   6.165  0.4912  0.2014 -0.3572
17364THY    HA321412   1.185   8.417   6.182 -1.3391  2.9769  2.1966
17364THY    CA421413   1.040   8.291   6.271 -0.0192  0.0965  0.2305
17364THY    HA421414   1.086   8.283   6.369  0.3654 -0.1711 -1.0086
17364THY    CA521415   0.923   8.214   6.258  0.7315  0.1245 -0.6232
17364THY    CM121416   0.882   8.109   6.357  0.0071 -0.4101 -0.3419
17364THY    HM121417   0.782   8.140   6.390  0.8114  1.4545  0.4253
17364THY    HM221418   0.941   8.131   6.447 -0.8319  0.1960 -0.5346
17364THY    HM321419   0.893   8.008   6.317  0.4023 -0.4849 -0.2725
17364THY    CA621420   0.850   8.221   6.139  0.4833 -0.6626 -0.3785
17364THY    HA621421   0.759   8.163   6.128 -0.4650 -1.4877  1.1955
17365THY      O21422   6.890   2.202   7.039 -0.1036 -1.0213  0.0754
17365THY     HO21423   6.905   2.267   7.110  1.9087  0.0074 -1.3932
17365THY    CA121424   6.755   2.197   7.024 -0.5628  0.5587  0.5655
17365THY    CA221425   6.683   2.080   7.048  0.2384 -0.5630  0.7458
17365THY    CP121426   6.755   1.944   7.094  0.5820  0.8657 -0.7761
17365THY    HP121427   6.857   1.980   7.115  0.1589  0.0446  0.9636
17365THY    CP221428   6.741   1.838   6.973  0.6774 -0.0826 -0.1809
17365THY    HP221429   6.745   1.887   6.875 -1.6077  0.6639  1.6465
17365THY    HP321430   6.648   1.782   6.986  0.2347 -2.8066 -0.1841
17365THY    HP421431   6.822   1.763   6.977 -0.2730  1.7387 -1.1804
17365THY    CP321432   6.720   1.894   7.235 -0.1675  0.4240  0.3193
17365THY    HP521433   6.613   1.889   7.258  0.1527  2.4950  1.5066
17365THY    HP621434   6.747   1.974   7.306 -1.6830  1.2436  0.1537
17365THY    HP721435   6.764   1.804   7.280  1.0275  1.2473  1.2817
17365THY    CA321436   6.544   2.085   7.023  0.6469  0.3819  0.2264
17365THY    HA321437   6.492   1.991   7.040  0.2996 -0.1532  0.3229
17365THY    CA421438   6.485   2.208   6.998 -0.8008 -0.1103 -0.3503
17365THY    HA421439   6.377   2.213   7.000 -0.7493  0.2120  0.9939
17365THY    CA521440   6.558   2.324   6.986  0.6457  0.2069  0.1314
17365THY    CM121441   6.497   2.463   6.960  0.5834 -0.0096 -0.1894
17365THY    HM121442   6.387   2.458   6.956  0.3093 -2.7999  3.5752
17365THY    HM221443   6.523   2.484   6.855 -0.0760 -1.0768 -3.8569
17365THY    HM321444   6.529   2.547   7.022 -1.5244  0.8163  0.0791
17365THY    CA621445   6.696   2.322   6.990  0.4117 -0.3804  0.2577
17365THY    HA621446   6.753   2.414   6.983  0.7910  1.0134  0.1469
17366THY      O21447   2.525   3.650   4.845 -0.5741  0.4388 -0.4037
17366THY     HO21448   2.494   3.733   4.805  0.7310 -0.5694 -0.3657
17366THY    CA121449   2.422   3.604   4.921  0.3725 -0.1633  0.1210
17366THY    CA221450   2.436   3.544   5.051 -0.0273  0.3757  0.1370
17366THY    CP121451   2.570   3.535   5.119 -0.1939  0.0189 -0.0109
17366THY    HP121452   2.645   3.547   5.041  0.9229  0.8924 -1.0672
17366THY    CP221453   2.592   3.397   5.185 -0.0090  0.5535  0.5595
17366THY    HP221454   2.596   3.320   5.106  1.5178 -1.0278  2.1573
17366THY    HP321455   2.512   3.383   5.259 -0.2138  1.0359  3.5177
17366THY    HP421456   2.687   3.397   5.239 -0.4914  1.4177  0.7895
17366THY    CP321457   2.602   3.641   5.222 -0.4468 -0.0932 -0.1333
17366THY    HP521458   2.617   3.736   5.171  0.5120 -1.9695 -1.2485
17366THY    HP621459   2.683   3.628   5.294 -1.7466  1.5208  0.2622
17366THY    HP721460   2.520   3.661   5.293  0.9236  1.2062  1.0963
17366THY    CA321461   2.318   3.505   5.120  0.0877 -0.5909  0.4956
17366THY    HA321462   2.333   3.481   5.225 -0.8266 -0.8661 -1.5329
17366THY    CA421463   2.191   3.525   5.060  0.1671 -0.6394  0.2330
17366THY    HA421464   2.114   3.502   5.133  1.7148  1.2741  0.7538
17366THY    CA521465   2.179   3.567   4.928  0.8123 -0.2758 -0.7348
17366THY    CM121466   2.053   3.600   4.852  0.4209 -0.7433  0.1425
17366THY    HM121467   2.062   3.633   4.748 -2.8409 -0.9680  0.6891
17366THY    HM221468   1.998   3.675   4.911 -0.0526 -1.3597  0.2859
17366THY    HM321469   2.000   3.505   4.838 -3.0440 -2.3342  2.1041
17366THY    CA621470   2.295   3.623   4.865  0.1380 -0.7815  0.2196
17366THY    HA621471   2.285   3.659   4.763 -2.0133 -0.6246  0.2245
17367THY      O21472   7.321   9.021   4.654  0.5579  0.0632  0.3315
17367THY     HO21473   7.387   9.080   4.694 -1.1444  0.2974  2.1848
17367THY    CA121474   7.378   8.909   4.602 -0.2604 -0.8978 -0.0722
17367THY    CA221475   7.325   8.842   4.489 -0.5736 -0.3526 -0.0486
17367THY    CP121476   7.196   8.896   4.422 -0.3180 -0.5333  0.7009
17367THY    HP121477   7.189   9.003   4.446  1.0595 -0.1079  0.7110
17367THY    CP221478   7.070   8.820   4.480 -0.1066  0.0902 -0.2066
17367THY    HP221479   7.050   8.849   4.583 -1.6128 -0.3466  0.3862
17367THY    HP321480   7.084   8.711   4.474  0.5809 -1.7823 -0.0616
17367THY    HP421481   6.980   8.851   4.426  0.3306  0.7203  2.3428
17367THY    CP321482   7.191   8.892   4.265 -0.0912  0.0562  0.0168
17367THY    HP521483   7.287   8.940   4.244  1.5312  2.0045 -2.1559
17367THY    HP621484   7.101   8.939   4.224 -1.3129  2.0833 -0.3981
17367THY    HP721485   7.208   8.794   4.218  0.1321  0.9626 -0.3984
17367THY    CA321486   7.390   8.717   4.457  0.7677  0.6592 -0.3728
17367THY    HA321487   7.358   8.659   4.372 -0.3504  1.8488 -1.5883
17367THY    CA421488   7.503   8.679   4.528  0.0685 -0.1065 -0.9964
17367THY    HA421489   7.562   8.593   4.499  2.1451  1.6630 -0.2575
17367THY    CA521490   7.554   8.759   4.630  0.1093 -0.6023  0.7822
17367THY    CM121491   7.681   8.708   4.693 -0.5959  0.4127 -0.2772
17367THY    HM121492   7.725   8.620   4.645 -0.0378  0.9753 -0.3142
17367THY    HM221493   7.676   8.689   4.801  0.1708  0.4099 -0.5243
17367THY    HM321494   7.758   8.784   4.673  1.0392  0.6485 -1.8020
17367THY    CA621495   7.494   8.873   4.673 -0.8113 -0.0715 -0.4205
17367THY    HA621496   7.526   8.928   4.761  0.7468 -0.7162 -0.2656
17368THY      O21497   5.770   2.365   5.043 -0.0559 -0.6149 -0.2513
17368THY     HO21498   5.720   2.446   5.062  0.8761 -0.8440  0.3858
17368THY    CA121499   5.891   2.380   5.102  0.2772 -0.2524 -0.7001
17368THY    CA221500   5.986   2.280   5.122  0.0358  0.0001  0.0329
17368THY    CP121501   5.953   2.137   5.079  0.8704 -0.8845  0.7287
17368THY    HP121502   5.865   2.128   5.014 -0.1477  0.7178 -2.8007
17368THY    CP221503   5.929   2.047   5.200  0.0503  0.2125 -0.5964
17368THY    HP221504   5.888   1.951   5.168  0.3201 -1.3995 -0.1908
17368THY    HP321505   5.854   2.087   5.270  0.2777 -0.2530  0.7108
17368THY    HP421506   6.016   2.020   5.261  0.1993 -0.9528 -2.9950
17368THY    CP321507   6.069   2.080   5.000 -0.3373  0.3460 -0.1027
17368THY    HP521508   6.082   2.128   4.902  0.0346  0.6411  0.3944
17368THY    HP621509   6.045   1.975   4.977 -1.3142  2.2905 -0.3425
17368THY    HP721510   6.165   2.075   5.052 -0.1716  0.1795  1.1973
17368THY    CA321511   6.112   2.302   5.188  0.3410  0.0966 -0.2427
17368THY    HA321512   6.177   2.220   5.215  0.9640  1.7069  0.7449
17368THY    CA421513   6.132   2.439   5.220  0.8555 -0.1814 -0.5361
17368THY    HA421514   6.227   2.477   5.256  1.4937  0.6415 -2.7490
17368THY    CA521515   6.035   2.540   5.196  0.2335  0.5858  0.9768
17368THY    CM121516   6.064   2.685   5.239  0.2008 -0.3287 -0.8632
17368THY    HM121517   6.012   2.705   5.333 -1.7327 -1.0006 -2.3485
17368THY    HM221518   6.020   2.744   5.158 -1.6670  0.4264 -1.1447
17368THY    HM321519   6.171   2.696   5.256  0.5271 -0.3319 -3.3418
17368THY    CA621520   5.920   2.509   5.131 -0.2119  0.1666 -0.2512
17368THY    HA621521   5.859   2.597   5.112 -1.3100  3.2918 -0.2133
17369THY      O21522   6.798   6.085   7.449 -0.9009  0.3546  0.3208
17369THY     HO21523   6.834   6.039   7.526 -1.3722  0.3691 -0.0383
17369THY    CA121524   6.913   6.135   7.383 -0.3730 -1.0678 -0.0183
17369THY    CA221525   6.923   6.275   7.338  0.4723 -0.0102  0.8116
17369THY    CP121526   6.799   6.362   7.339  0.1594 -0.0335 -0.4452
17369THY    HP121527   6.713   6.306   7.376  0.6987  1.1317 -0.5323
17369THY    CP221528   6.755   6.419   7.200  0.2986  0.1785  0.0738
17369THY    HP221529   6.659   6.472   7.208  2.0703 -1.5392  3.9184
17369THY    HP321530   6.762   6.339   7.125 -0.8992  0.9771 -0.8193
17369THY    HP421531   6.812   6.504   7.162 -1.8698 -1.9523  0.7104
17369THY    CP321532   6.802   6.471   7.447  0.4749  0.0530  0.3993
17369THY    HP521533   6.703   6.515   7.462  0.1724 -2.4414  0.7047
17369THY    HP621534   6.879   6.545   7.421  1.7648  2.8021  0.1309
17369THY    HP721535   6.834   6.422   7.539  1.8406  0.2080  1.5105
17369THY    CA321536   7.051   6.312   7.283  0.5075  0.3822 -0.1997
17369THY    HA321537   7.067   6.412   7.243  1.3033  1.6566  0.2092
17369THY    CA421538   7.156   6.225   7.280  0.3409  0.7347 -0.8973
17369THY    HA421539   7.247   6.271   7.242 -0.7359  0.6888  1.3620
17369THY    CA521540   7.149   6.101   7.335 -0.3323  0.7796  0.4133
17369THY    CM121541   7.273   6.013   7.344  0.4840  0.4441 -0.1385
17369THY    HM121542   7.362   6.065   7.380  1.2388  1.0587 -1.7726
17369THY    HM221543   7.295   5.973   7.244 -1.4169 -0.3880  0.7678
17369THY    HM321544   7.251   5.926   7.408 -0.0365  1.2189  0.5429
17369THY    CA621545   7.029   6.055   7.391 -0.9744 -0.2805  0.0592
17369THY    HA621546   7.024   5.957   7.437  0.3027 -1.2054 -0.4737
17370THY      O21547   5.704   8.926   6.223  0.3368 -0.0001  0.2011
17370THY     HO21548   5.639   8.924   6.296 -1.4709 -1.5075  0.5707
17370THY    CA121549   5.717   9.058   6.193 -0.0560 -0.0296  0.0582
17370THY    CA221550   5.811   9.105   6.103 -0.4062 -0.6599 -0.1948
17370THY    CP121551   5.895   9.007   6.023  0.4403 -0.1130  0.0520
17370THY    HP121552   5.888   8.910   6.074 -1.8663  0.2601  0.3605
17370THY    CP221553   6.043   9.040   6.015 -0.2599  0.3434  0.3036
17370THY    HP221554   6.090   9.065   6.111  0.0743  0.5107 -0.9217
17370THY    HP321555   6.055   9.130   5.952  2.1270  2.8855  1.9353
17370THY    HP421556   6.099   8.955   5.973  2.1805  0.2247  1.8618
17370THY    CP321557   5.845   8.985   5.886  0.0811 -0.2573  0.6035
17370THY    HP521558   5.736   8.995   5.886 -0.0015  0.9220 -0.1150
17370THY    HP621559   5.873   8.886   5.848 -1.0918  3.1258 -1.1780
17370THY    HP721560   5.875   9.068   5.821 -1.1797  0.1776  1.4373
17370THY    CA321561   5.813   9.238   6.067 -0.1937  1.0810 -0.1933
17370THY    HA321562   5.868   9.273   5.979 -0.3027  1.2256  0.3604
17370THY    CA421563   5.733   9.326   6.133 -0.4172  0.2263 -0.9984
17370THY    HA421564   5.726   9.432   6.112  0.8172  0.5587 -0.8417
17370THY    CA521565   5.656   9.286   6.237  1.0716  0.4073  0.1085
17370THY    CM121566   5.565   9.371   6.314 -0.7816  0.6246  0.4125
17370THY    HM121567   5.501   9.425   6.243  3.3762 -3.2086  0.9113
17370THY    HM221568   5.626   9.450   6.357  0.4936  0.9802 -0.7250
17370THY    HM321569   5.494   9.324   6.383 -1.7780 -0.2779  0.5235
17370THY    CA621570   5.648   9.150   6.264 -0.3341 -0.8484 -0.2840
17370THY    HA621571   5.589   9.121   6.351 -0.4024 -1.0222 -0.6640
17371THY      O21572   5.888   1.479   2.520  0.7698 -0.3315 -0.5084
17371THY     HO21573   5.945   1.419   2.467  1.1665  0.2901 -0.6891
17371THY    CA121574   5.761   1.453   2.494 -0.1379 -0.5422 -0.4638
17371THY    CA221575   5.661   1.517   2.558 -0.9577 -0.0958 -0.1452
17371THY    CP121576   5.701   1.627   2.660  0.2578  0.3332  0.5000
17371THY    HP121577   5.789   1.587   2.711  0.3494 -0.3083 -0.1455
17371THY    CP221578   5.597   1.642   2.774 -0.6610 -0.3521 -0.2159
17371THY    HP221579   5.576   1.542   2.812  0.5774 -1.0557 -0.7606
17371THY    HP321580   5.511   1.694   2.729  0.0428  0.4751  1.7486
17371THY    HP421581   5.631   1.711   2.852 -0.0260 -1.4351  0.7338
17371THY    CP321582   5.723   1.764   2.577 -0.2093  0.2055 -0.2606
17371THY    HP521583   5.754   1.846   2.643  3.0590 -1.1210 -0.2392
17371THY    HP621584   5.628   1.797   2.532 -0.3123  0.4298 -0.2540
17371THY    HP721585   5.809   1.763   2.508  0.4310  0.9983 -0.5986
17371THY    CA321586   5.527   1.493   2.511  0.1958  0.2276  0.1027
17371THY    HA321587   5.445   1.555   2.547 -0.5525  0.9998 -1.2940
17371THY    CA421588   5.508   1.404   2.405 -0.2863 -0.7445 -0.1567
17371THY    HA421589   5.409   1.377   2.372 -0.0595  0.0341 -2.1202
17371THY    CA521590   5.613   1.328   2.359  0.1365 -0.4083  0.5292
17371THY    CM121591   5.598   1.226   2.257  0.4420 -0.1825 -0.6620
17371THY    HM121592   5.641   1.248   2.159 -1.8938 -1.1586 -0.1168
17371THY    HM221593   5.497   1.223   2.214  0.8258 -1.3672  1.1801
17371THY    HM321594   5.626   1.128   2.298  0.1833  1.1119 -0.2220
17371THY    CA621595   5.741   1.348   2.406  0.3659  0.0241 -0.0272
17371THY    HA621596   5.820   1.284   2.367 -0.0433 -1.4042  0.3171
17372THY      O21597   1.359   3.035   3.987  0.2161 -0.1172  0.0998
17372THY     HO21598   1.287   3.095   4.014 -2.0327  1.3943 -2.9822
17372THY    CA121599   1.336   3.002   3.858 -0.0151 -0.4152 -0.0307
17372THY    CA221600   1.331   2.864   3.810 -0.6130  0.5659  0.3782
17372THY    CP121601   1.365   2.752   3.910  0.0819  0.1397  0.1256
17372THY    HP121602   1.385   2.774   4.016  0.1183  0.0894  0.3362
17372THY    CP221603   1.475   2.658   3.864  0.2906 -0.0982  0.5132
17372THY    HP221604   1.536   2.711   3.790 -0.5900  0.1782  1.9601
17372THY    HP321605   1.430   2.573   3.812  0.4934  3.7140 -2.1684
17372THY    HP421606   1.530   2.607   3.944  0.3497 -0.2889  0.2742
17372THY    CP321607   1.237   2.661   3.927 -0.2305 -0.0299 -0.2139
17372THY    HP521608   1.197   2.616   3.836  0.6332 -1.0142  0.9682
17372THY    HP621609   1.163   2.732   3.968  0.2904 -0.9484  0.8783
17372THY    HP721610   1.244   2.576   3.997 -2.8897 -1.5945 -1.8798
17372THY    CA321611   1.304   2.848   3.669  0.4583  0.0666  0.1232
17372THY    HA321612   1.289   2.747   3.631  0.7440 -0.2291  0.1918
17372THY    CA421613   1.289   2.962   3.589  0.2792  0.2778  0.2526
17372THY    HA421614   1.270   2.941   3.484 -1.5998  1.0328 -2.4243
17372THY    CA521615   1.288   3.093   3.640  0.1818  0.1857  0.2722
17372THY    CM121616   1.248   3.206   3.544  0.0309  0.5027  0.1319
17372THY    HM121617   1.140   3.206   3.526  0.1251 -0.2671  2.1080
17372THY    HM221618   1.286   3.186   3.443  0.9288  0.4712  1.8775
17372THY    HM321619   1.272   3.304   3.586  1.7354 -2.0449  0.9027
17372THY    CA621620   1.300   3.108   3.777 -1.0404 -0.5482  0.2356
17372THY    HA621621   1.294   3.206   3.823  0.0209  1.0419 -0.3908
17373THY      O21622   7.311   1.149   2.675 -0.4282  0.4468  0.1678
17373THY     HO21623   7.396   1.126   2.634 -1.3769 -3.5068  2.6751
17373THY    CA121624   7.294   1.077   2.785 -0.4627  0.7129 -0.0732
17373THY    CA221625   7.240   1.126   2.906  0.3537  0.1107  0.7596
17373THY    CP121626   7.177   1.261   2.920  0.0213 -0.6433  0.2725
17373THY    HP121627   7.226   1.325   2.846 -2.2787 -0.8275  1.9250
17373THY    CP221628   7.197   1.332   3.058  0.2317 -0.0439 -0.1313
17373THY    HP221629   7.263   1.270   3.119 -0.8152  0.2731 -0.9434
17373THY    HP321630   7.100   1.339   3.108 -1.0031 -2.1293 -1.4389
17373THY    HP421631   7.237   1.434   3.055  0.9192  0.6430 -0.3763
17373THY    CP321632   7.038   1.262   2.877 -0.1345  0.3090  0.6257
17373THY    HP521633   7.020   1.360   2.831 -1.4759  0.9770  0.7183
17373THY    HP621634   6.964   1.243   2.956 -1.1565 -0.8462 -0.3730
17373THY    HP721635   7.032   1.182   2.803  1.5636 -1.0752  1.7119
17373THY    CA321636   7.211   1.027   3.012 -0.2066 -0.0615 -0.1389
17373THY    HA321637   7.156   1.050   3.103 -0.6454 -0.4628  0.4467
17373THY    CA421638   7.257   0.889   2.996  0.4797 -1.0108 -0.9942
17373THY    HA421639   7.243   0.821   3.080 -0.0263 -1.6758 -1.7250
17373THY    CA521640   7.311   0.852   2.880 -0.2007 -0.0189  0.1538
17373THY    CM121641   7.335   0.705   2.857  0.6357  0.8872  0.0426
17373THY    HM121642   7.303   0.675   2.757  3.2678  0.1606 -0.5600
17373THY    HM221643   7.286   0.640   2.932 -0.5352 -0.9811 -1.3305
17373THY    HM321644   7.443   0.689   2.853  0.6300 -0.4811  0.2519
17373THY    CA621645   7.335   0.944   2.777 -0.0242  0.4029 -0.1869
17373THY    HA621646   7.370   0.901   2.683 -2.8357 -0.9355  0.1957
17374THY      O21647   6.736   0.801   3.471 -0.5413  0.3692  0.5161
17374THY     HO21648   6.669   0.872   3.479 -2.2864  0.5561 -1.0778
17374THY    CA121649   6.851   0.856   3.447  0.5811 -0.9841  0.1369
17374THY    CA221650   6.971   0.783   3.438  0.2051 -0.6715 -0.3764
17374THY    CP121651   6.978   0.629   3.443  0.5704  0.6763 -0.0253
17374THY    HP121652   6.879   0.590   3.469 -1.2448 -1.9703  2.3536
17374THY    CP221653   7.058   0.585   3.557 -0.1519  0.0452 -0.2622
17374THY    HP221654   7.162   0.620   3.549 -0.4559 -0.2982  0.6001
17374THY    HP321655   7.078   0.478   3.547  0.5489  2.7889 -0.4750
17374THY    HP421656   7.024   0.605   3.660  1.1415  0.5443 -0.5055
17374THY    CP321657   7.022   0.566   3.314 -0.2357 -0.0533  0.1940
17374THY    HP521658   6.998   0.459   3.323 -0.0304  1.8932  0.2809
17374THY    HP621659   7.124   0.599   3.288  0.0825 -1.5896 -1.7709
17374THY    HP721660   6.967   0.604   3.227  1.4385 -1.4543 -0.4299
17374THY    CA321661   7.093   0.857   3.412  0.5549  0.0666  0.9439
17374THY    HA321662   7.183   0.797   3.403  0.3172 -0.7631  0.7039
17374THY    CA421663   7.093   0.992   3.395  0.7979 -0.2796  0.4321
17374THY    HA421664   7.185   1.033   3.355  1.2674  0.3358  0.0016
17374THY    CA521665   6.974   1.063   3.406 -0.4269 -0.1602  0.1582
17374THY    CM121666   6.984   1.211   3.412  0.4807 -0.2167 -0.5768
17374THY    HM121667   6.900   1.276   3.438  1.4679 -1.6499  1.4061
17374THY    HM221668   7.009   1.243   3.310 -0.3585 -0.5275 -0.9132
17374THY    HM321669   7.070   1.244   3.473 -1.6061  1.6433  1.8071
17374THY    CA621670   6.853   0.999   3.443 -0.2670  0.1169  0.7151
17374THY    HA621671   6.761   1.057   3.445 -0.2236  1.4379  0.7528
17375THY      O21672   3.299   6.574   7.917  0.4797 -0.5912 -0.2007
17375THY     HO21673   3.210   6.542   7.939 -0.0944 -3.7245 -1.0476
17375THY    CA121674   3.274   6.610   7.792 -1.0861  0.3335 -0.0244
17375THY    CA221675   3.370   6.648   7.700  0.5103  0.5915  0.4319
17375THY    CP121676   3.516   6.651   7.736  1.0579 -0.3726 -0.4519
17375THY    HP121677   3.524   6.647   7.845  1.3448 -0.3686  0.1891
17375THY    CP221678   3.593   6.772   7.684  0.3844  0.3719 -0.1039
17375THY    HP221679   3.699   6.762   7.711 -0.1198  1.8219 -2.0012
17375THY    HP321680   3.562   6.858   7.745 -1.5531 -0.6089 -0.0629
17375THY    HP421681   3.589   6.783   7.575  1.6407  0.2988 -0.1738
17375THY    CP321682   3.580   6.530   7.678  0.3554  0.3007 -0.0774
17375THY    HP521683   3.684   6.512   7.706  0.4466  0.1260  0.1705
17375THY    HP621684   3.574   6.528   7.569  0.8632  0.2512  0.6010
17375THY    HP721685   3.512   6.450   7.711  2.2602 -0.0190 -1.9341
17375THY    CA321686   3.329   6.678   7.568 -0.2197 -0.1204  0.0154
17375THY    HA321687   3.404   6.691   7.490  2.5607  2.1774 -1.2597
17375THY    CA421688   3.191   6.668   7.536  0.0733  0.0527 -0.0482
17375THY    HA421689   3.157   6.683   7.434 -2.1879  0.8293  0.5465
17375THY    CA521690   3.099   6.656   7.637  0.1096  0.6944  0.0183
17375THY    CM121691   2.954   6.670   7.626 -0.6002  0.1658 -0.1363
17375THY    HM121692   2.888   6.615   7.694 -0.5972 -1.8511 -2.7831
17375THY    HM221693   2.910   6.651   7.528  1.2775 -1.3389  2.5286
17375THY    HM321694   2.932   6.777   7.636 -0.7956  1.7226 -0.2896
17375THY    CA621695   3.140   6.630   7.766  1.2287  0.1696  0.1349
17375THY    HA621696   3.060   6.616   7.839  0.7416 -0.9491 -4.1483
17376THY      O21697   1.841   3.321   6.804 -0.1527  0.3790  0.0567
17376THY     HO21698   1.900   3.246   6.821 -0.8883 -0.6356 -0.7827
17376THY    CA121699   1.735   3.287   6.884  0.4623 -0.1280 -0.0541
17376THY    CA221700   1.603   3.311   6.840  0.3845  0.1317 -0.0387
17376THY    CP121701   1.583   3.366   6.689 -0.0694  0.8513 -0.2940
17376THY    HP121702   1.675   3.352   6.632 -0.8266 -1.1026  2.0252
17376THY    CP221703   1.550   3.512   6.693  0.0239 -0.1311 -0.2841
17376THY    HP221704   1.553   3.561   6.595 -0.1098  0.7416  1.5792
17376THY    HP321705   1.619   3.575   6.751 -0.5947  0.9951 -0.6193
17376THY    HP421706   1.454   3.525   6.745  0.2651  0.1756  0.3331
17376THY    CP321707   1.476   3.293   6.611  0.0300  0.1899 -0.0901
17376THY    HP521708   1.482   3.184   6.623 -0.3372 -2.3789 -0.4570
17376THY    HP621709   1.482   3.301   6.502 -2.1933  0.0146 -0.3270
17376THY    HP721710   1.381   3.339   6.639  1.1223  1.5375  1.4894
17376THY    CA321711   1.490   3.298   6.925 -0.2444 -0.8539 -0.7335
17376THY    HA321712   1.392   3.335   6.898 -0.8100  0.1714 -1.4191
17376THY    CA421713   1.515   3.260   7.058 -0.2711  0.0709 -0.3508
17376THY    HA421714   1.431   3.250   7.127  0.5582  2.3458  4.9821
17376THY    CA521715   1.646   3.232   7.104 -0.2050  0.2288  0.3420
17376THY    CM121716   1.667   3.203   7.245  0.3713  0.2453  0.0297
17376THY    HM121717   1.675   3.295   7.306  0.4761  0.9857 -0.4605
17376THY    HM221718   1.769   3.166   7.260  1.1649 -1.8027  1.2183
17376THY    HM321719   1.585   3.140   7.281 -1.5602 -2.0312  1.0952
17376THY    CA621720   1.755   3.245   7.015  0.0233 -0.4736 -0.2553
17376THY    HA621721   1.856   3.224   7.048  0.8062 -2.6244 -0.0483
17377THY      O21722   8.075   5.990   5.924 -0.1348  0.6517  0.1891
17377THY     HO21723   8.115   6.071   5.890  0.2785 -0.7057 -0.5564
17377THY    CA121724   7.992   5.948   5.826  0.1510 -0.3218  0.3663
17377THY    CA221725   7.978   5.814   5.795 -0.1846  0.5187 -0.0141
17377THY    CP121726   8.062   5.701   5.865 -0.1006 -0.1086 -0.5823
17377THY    HP121727   8.118   5.734   5.953  1.3591 -1.5924  1.1660
17377THY    CP221728   8.169   5.655   5.762 -0.7755 -0.2695 -0.1308
17377THY    HP221729   8.203   5.553   5.781 -2.6432  1.4233 -0.5028
17377THY    HP321730   8.262   5.712   5.761  1.4615 -0.4700 -3.5432
17377THY    HP421731   8.140   5.652   5.656  0.6328 -0.7157  1.1618
17377THY    CP321732   7.972   5.580   5.889 -0.5233 -0.0577 -0.0423
17377THY    HP521733   7.948   5.514   5.805  1.7089 -0.6734 -0.1139
17377THY    HP621734   7.892   5.610   5.958  0.2687  1.2128 -0.7586
17377THY    HP721735   8.031   5.505   5.944 -1.1495 -0.6009 -0.9595
17377THY    CA321736   7.894   5.783   5.681 -0.2749 -0.4614 -0.6446
17377THY    HA321737   7.885   5.679   5.653  1.3476  0.1491 -0.9826
17377THY    CA421738   7.823   5.883   5.614  0.8130 -0.2191  0.3563
17377THY    HA421739   7.749   5.854   5.541  2.2988 -0.7639 -2.4869
17377THY    CA521740   7.840   6.016   5.656  0.1695 -0.1542 -0.3858
17377THY    CM121741   7.774   6.135   5.584 -0.0747 -0.1006 -0.2148
17377THY    HM121742   7.810   6.235   5.614  1.7484 -0.3855 -0.7498
17377THY    HM221743   7.665   6.137   5.591 -0.1181 -0.7199  1.1742
17377THY    HM321744   7.792   6.124   5.477  0.0489 -0.1682  0.5849
17377THY    CA621745   7.934   6.048   5.755  0.4793  0.0557 -0.0310
17377THY    HA621746   7.945   6.153   5.780 -3.0425 -2.7485  1.1883
17378THY      O21747   3.414   5.110   2.756  0.0785  0.1464  0.4856
17378THY     HO21748   3.497   5.108   2.705  0.2694  0.4741 -1.0501
17378THY    CA121749   3.303   5.076   2.675 -0.2415 -0.5277  0.2003
17378THY    CA221750   3.171   5.074   2.719  1.2831  0.3161  0.4868
17378THY    CP121751   3.132   5.099   2.860 -0.4242 -0.1544  0.0978
17378THY    HP121752   3.219   5.086   2.926  0.6337 -1.3278  0.9538
17378THY    CP221753   3.021   5.002   2.911  0.1535  0.0255 -0.2648
17378THY    HP221754   3.044   4.898   2.889  1.6433 -0.7330  0.2062
17378THY    HP321755   2.924   5.033   2.870 -0.5477  2.1159  0.5050
17378THY    HP421756   3.011   5.013   3.020  1.3833  0.1642 -0.4570
17378THY    CP321757   3.092   5.242   2.886 -0.6759  0.2421  0.3005
17378THY    HP521758   3.001   5.279   2.836 -1.2421  0.9334 -0.1313
17378THY    HP621759   3.174   5.306   2.852 -1.6622 -1.1468  0.8772
17378THY    HP721760   3.091   5.259   2.994  0.6990  0.2738  0.2790
17378THY    CA321761   3.066   5.043   2.621 -0.1186 -0.1373  0.3474
17378THY    HA321762   2.962   5.035   2.652  0.1582  0.6837 -0.2499
17378THY    CA421763   3.091   5.013   2.491 -0.2672 -0.3876  0.1195
17378THY    HA421764   3.007   4.991   2.425 -0.8237 -0.1837  1.5231
17378THY    CA521765   3.225   5.020   2.449  0.4719  0.2858 -0.2679
17378THY    CM121766   3.247   5.001   2.302 -0.5378  0.3328  0.3313
17378THY    HM121767   3.344   4.949   2.303  0.2937  1.1411  1.8238
17378THY    HM221768   3.275   5.099   2.262 -0.4613  1.5862  0.8455
17378THY    HM321769   3.172   4.945   2.245  0.1638 -1.4117  1.1132
17378THY    CA621770   3.325   5.052   2.544 -0.4684  0.3657  0.1191
17378THY    HA621771   3.428   5.055   2.511 -0.8409 -0.9799 -1.0558
17379THY      O21772   1.381   4.161   6.153 -0.1390  0.9807 -0.3736
17379THY     HO21773   1.362   4.079   6.201  1.4835 -2.6622 -3.1396
17379THY    CA121774   1.337   4.140   6.025  0.0134  0.4107 -0.0193
17379THY    CA221775   1.208   4.186   5.987 -0.5102  0.0587  0.4781
17379THY    CP121776   1.119   4.254   6.093 -0.3206 -0.0249 -0.2063
17379THY    HP121777   1.168   4.278   6.188 -0.0955 -0.6056  1.7686
17379THY    CP221778   0.997   4.170   6.144 -0.2132 -0.5372 -0.2992
17379THY    HP221779   1.035   4.091   6.209  0.3119 -1.0588 -0.4799
17379THY    HP321780   0.939   4.117   6.067 -1.3483  0.2816 -0.2876
17379THY    HP421781   0.925   4.225   6.206 -0.0145 -0.2113 -0.4071
17379THY    CP321782   1.077   4.389   6.038  0.0603 -0.4317 -0.4234
17379THY    HP521783   1.170   4.438   6.007 -0.5567 -1.0896  0.3594
17379THY    HP621784   1.034   4.447   6.120 -1.1560 -1.6924  0.5346
17379THY    HP721785   0.996   4.370   5.966  0.6436 -1.1189 -0.3320
17379THY    CA321786   1.168   4.169   5.855  0.0331 -0.1706  0.2328
17379THY    HA321787   1.071   4.196   5.815 -0.8586  0.8391 -1.3229
17379THY    CA421788   1.259   4.114   5.762  0.0749  0.3030 -0.9364
17379THY    HA421789   1.241   4.109   5.655 -1.2801  0.4245  0.5346
17379THY    CA521790   1.387   4.067   5.808  0.5485  0.5048 -0.4374
17379THY    CM121791   1.481   4.022   5.706  0.4193 -0.5073  0.1855
17379THY    HM121792   1.452   4.016   5.600  0.8633 -0.5553 -2.3701
17379THY    HM221793   1.508   3.919   5.732  2.1493 -2.4550  0.0715
17379THY    HM321794   1.573   4.079   5.723  0.7676  0.0025 -0.5035
17379THY    CA621795   1.419   4.078   5.940 -0.1929 -0.1341  0.6745
17379THY    HA621796   1.519   4.051   5.973 -0.3586 -0.7404 -0.7818
17380THY      O21797   4.937   7.995   6.166 -0.2848 -0.2669  0.2060
17380THY     HO21798   4.959   8.080   6.125 -2.0463  1.0884  1.3907
17380THY    CA121799   4.865   8.022   6.282 -0.0804  0.6743  0.3779
17380THY    CA221800   4.788   8.137   6.308  0.3284  0.3933  0.7468
17380THY    CP121801   4.777   8.238   6.201 -0.0305  0.8417 -0.3921
17380THY    HP121802   4.782   8.187   6.104  0.4123  1.5121 -1.6766
17380THY    CP221803   4.887   8.345   6.209  0.5720  0.4568  0.5281
17380THY    HP221804   4.852   8.408   6.291 -3.6626  0.0118 -0.8593
17380THY    HP321805   4.879   8.399   6.114 -1.2717  0.1405 -0.2058
17380THY    HP421806   4.986   8.300   6.221  1.5076 -0.3882  2.2564
17380THY    CP321807   4.639   8.301   6.178 -0.1298 -0.5723  0.9094
17380THY    HP521808   4.566   8.221   6.191  0.8932 -0.5773 -0.0400
17380THY    HP621809   4.633   8.345   6.078  0.6366 -0.9336  0.2183
17380THY    HP721810   4.621   8.371   6.260 -0.0062  1.1050 -0.9430
17380THY    CA321811   4.723   8.154   6.433 -0.3022  0.5180 -0.3412
17380THY    HA321812   4.659   8.241   6.444 -2.4549 -1.1168 -1.6125
17380THY    CA421813   4.730   8.051   6.523 -0.1887 -0.2692  0.7232
17380THY    HA421814   4.665   8.053   6.610 -0.5274 -0.5030  2.8878
17380THY    CA521815   4.812   7.943   6.500  0.3638  0.2335 -0.2176
17380THY    CM121816   4.800   7.834   6.601  0.8340 -0.6237 -0.0375
17380THY    HM121817   4.787   7.868   6.704  0.5736 -0.6274 -0.1297
17380THY    HM221818   4.890   7.771   6.592  0.7062 -3.0625  0.0541
17380THY    HM321819   4.722   7.762   6.576 -0.3700  0.8987  0.6877
17380THY    CA621820   4.875   7.929   6.381 -0.7774  0.0492  0.1586
17380THY    HA621821   4.922   7.834   6.357  0.4152  0.9161  0.5117
17381THY      O21822   4.540   3.178   1.799 -0.0453 -0.4426  0.1419
17381THY     HO21823   4.564   3.145   1.711 -0.6944 -0.6412  0.1890
17381THY    CA121824   4.440   3.094   1.834  0.4244  0.8708 -0.2191
17381THY    CA221825   4.386   3.095   1.963 -0.9226 -0.4793  0.4904
17381THY    CP121826   4.463   3.160   2.078  0.1209 -0.7651 -0.1875
17381THY    HP121827   4.533   3.237   2.043 -0.8826  2.2426  2.2732
17381THY    CP221828   4.540   3.039   2.138  0.2022  0.0116  0.7206
17381THY    HP221829   4.618   3.083   2.202 -0.5785  0.9975  0.6883
17381THY    HP321830   4.596   2.975   2.069 -0.4445 -0.5282  0.7255
17381THY    HP421831   4.478   2.977   2.204  1.5052  3.1091  2.4551
17381THY    CP321832   4.375   3.250   2.181  0.0333 -0.0598  0.1256
17381THY    HP521833   4.440   3.291   2.258 -0.6622  0.0349  1.0840
17381THY    HP621834   4.298   3.192   2.233 -0.0022 -0.5219 -0.2459
17381THY    HP721835   4.321   3.333   2.134 -1.4314 -0.7498 -1.1709
17381THY    CA321836   4.279   3.006   1.997 -0.4555 -0.0754 -0.2354
17381THY    HA321837   4.245   3.008   2.100  0.9990  0.4668 -1.2803
17381THY    CA421838   4.217   2.934   1.899 -0.5538 -0.1729 -0.1669
17381THY    HA421839   4.132   2.870   1.924  1.0286 -1.0999 -2.7976
17381THY    CA521840   4.264   2.934   1.765 -0.2387 -0.1074 -0.0528
17381THY    CM121841   4.199   2.853   1.654 -0.2767  0.6828  0.5181
17381THY    HM121842   4.191   2.914   1.564  1.1975 -2.4154 -3.4274
17381THY    HM221843   4.102   2.811   1.680  0.4698 -0.6704 -2.2558
17381THY    HM321844   4.265   2.768   1.635  1.3347 -1.6597  2.1647
17381THY    CA621845   4.381   3.007   1.732  0.0550  1.2493 -0.0398
17381THY    HA621846   4.409   3.015   1.627  0.4484  1.3527 -0.0273
17382THY      O21847   8.505   2.456   3.471 -0.0725  0.8637 -0.1073
17382THY     HO21848   8.488   2.501   3.556  0.4619 -0.1140  2.0668
17382THY    CA121849   8.527   2.321   3.489 -0.1636 -0.2051  0.1647
17382THY    CA221850   8.551   2.228   3.379  0.1998 -0.3905 -0.5291
17382THY    CP121851   8.534   2.283   3.235  0.3635  1.1046  0.1670
17382THY    HP121852   8.500   2.387   3.246 -0.9137 -0.8853  0.0091
17382THY    CP221853   8.420   2.203   3.163 -0.1194 -0.9540  0.1081
17382THY    HP221854   8.327   2.205   3.223  1.3902  1.5659 -0.4468
17382THY    HP321855   8.450   2.099   3.152  1.4406  5.2133 -0.4929
17382THY    HP421856   8.394   2.245   3.065  0.8616 -1.3944 -0.2952
17382THY    CP321857   8.670   2.291   3.160 -0.2601  0.5022  0.3713
17382THY    HP521858   8.705   2.190   3.135 -0.4184 -2.6871  1.0204
17382THY    HP621859   8.743   2.343   3.223  0.6015 -0.8724  0.8800
17382THY    HP721860   8.670   2.333   3.059 -0.4897  0.1903 -0.3596
17382THY    CA321861   8.577   2.091   3.399  0.1427 -0.3372  0.6716
17382THY    HA321862   8.578   2.019   3.319  2.1799 -0.3293  0.6348
17382THY    CA421863   8.580   2.051   3.536  0.1327 -0.0618  0.4121
17382THY    HA421864   8.605   1.947   3.551  0.0199 -1.6630  0.1190
17382THY    CA521865   8.560   2.139   3.637  0.5571 -0.2237 -0.3623
17382THY    CM121866   8.578   2.091   3.782 -0.1152 -0.2775 -0.0618
17382THY    HM121867   8.587   1.983   3.797 -2.7235 -0.0580 -0.3144
17382THY    HM221868   8.487   2.110   3.842  0.6109  0.4287  1.3845
17382THY    HM321869   8.656   2.155   3.825  0.8958 -1.8114 -0.2252
17382THY    CA621870   8.531   2.273   3.615  0.3870  0.0270  0.3660
17382THY    HA621871   8.504   2.336   3.700  0.6171  0.9710 -0.7681
17383THY      O21872   4.238   7.936   2.707 -0.0029 -0.0413 -0.1146
17383THY     HO21873   4.194   7.916   2.623  0.8269 -0.8929  1.4343
17383THY    CA121874   4.339   7.838   2.722  0.7026 -0.2568 -0.5997
17383THY    CA221875   4.394   7.811   2.848  0.1011  0.0483 -0.4513
17383THY    CP121876   4.353   7.900   2.976  0.2174 -0.2742  0.3605
17383THY    HP121877   4.314   7.998   2.947  1.5554  0.0336  1.0143
17383THY    CP221878   4.485   7.940   3.054  0.0666 -0.2813  0.7140
17383THY    HP221879   4.472   8.029   3.116 -2.1971  0.5349 -0.1026
17383THY    HP321880   4.570   7.947   2.985  1.1538  0.5890 -2.4721
17383THY    HP421881   4.508   7.862   3.127 -0.4011 -0.6241  0.2452
17383THY    CP321882   4.251   7.844   3.077  0.1562 -0.1509  0.8863
17383THY    HP521883   4.299   7.758   3.127  1.1112 -0.3748  1.2831
17383THY    HP621884   4.155   7.812   3.035 -1.2995  4.2302 -1.4138
17383THY    HP721885   4.227   7.930   3.141 -3.0145  0.7235 -0.4898
17383THY    CA321886   4.488   7.706   2.857 -0.2180 -0.2240 -0.6922
17383THY    HA321887   4.543   7.689   2.949  0.8774  0.0165  3.1854
17383THY    CA421888   4.519   7.638   2.744  0.4366 -0.5371 -0.2325
17383THY    HA421889   4.589   7.555   2.753 -0.9700  1.8519 -1.2590
17383THY    CA521890   4.471   7.674   2.622 -0.7437  0.3667 -0.2943
17383THY    CM121891   4.521   7.608   2.499  0.0073  0.5715 -0.1924
17383THY    HM121892   4.531   7.502   2.525  1.9876 -1.0233 -0.4745
17383THY    HM221893   4.617   7.652   2.469  0.6611  1.7541 -0.7663
17383THY    HM321894   4.450   7.623   2.417 -0.6213  0.8103 -1.7068
17383THY    CA621895   4.375   7.770   2.614 -0.7599  0.3126 -0.2903
17383THY    HA621896   4.333   7.796   2.518 -0.6212  0.3765  0.1697
17384THY      O21897   1.241   0.712   5.649  1.1906 -0.3765 -0.6851
17384THY     HO21898   1.251   0.808   5.639  0.1602  0.0829 -0.5159
17384THY    CA121899   1.346   0.664   5.586 -0.0263 -0.0831  0.4607
17384THY    CA221900   1.422   0.545   5.627  0.6394 -0.6964 -0.0354
17384THY    CP121901   1.388   0.472   5.760  0.3085 -0.7120  0.0411
17384THY    HP121902   1.333   0.537   5.828 -0.6910  0.6236 -2.0717
17384THY    CP221903   1.504   0.413   5.835 -0.0822  0.0154  0.2763
17384THY    HP221904   1.580   0.491   5.824 -0.3605  0.9265  0.6832
17384THY    HP321905   1.545   0.314   5.809  0.2114  0.5209  0.2610
17384THY    HP421906   1.461   0.411   5.936 -2.3987 -0.8978 -1.3884
17384THY    CP321907   1.294   0.357   5.723  0.3686 -0.5823 -0.1247
17384THY    HP521908   1.277   0.298   5.814  2.0984  0.6287  1.1184
17384THY    HP621909   1.331   0.304   5.634 -0.0694 -0.7962 -0.0707
17384THY    HP721910   1.194   0.385   5.689  0.6739 -0.8288  0.6813
17384THY    CA321911   1.518   0.497   5.539 -1.0657  0.0467  0.0583
17384THY    HA321912   1.574   0.408   5.568  0.6430 -0.2220  1.0022
17384THY    CA421913   1.554   0.570   5.430 -0.3268 -0.4716 -0.8257
17384THY    HA421914   1.644   0.544   5.375  0.7025  0.6787  0.1646
17384THY    CA521915   1.479   0.683   5.393 -0.2597  0.2999  0.4495
17384THY    CM121916   1.517   0.759   5.272  0.3277 -0.5792  0.5012
17384THY    HM121917   1.622   0.791   5.268  0.4849  2.0554  0.5438
17384THY    HM221918   1.459   0.851   5.260  0.4467  1.7125  0.9224
17384THY    HM321919   1.495   0.703   5.180 -2.2014 -0.4869  1.2335
17384THY    CA621920   1.380   0.730   5.469  0.2772 -1.2019  0.0226
17384THY    HA621921   1.331   0.820   5.432 -0.1140 -1.0965 -0.1454
17385THY      O21922   9.157   6.061   1.564 -0.9112  0.0572  0.7135
17385THY     HO21923   9.155   6.119   1.485  2.0998 -1.1664 -0.6275
17385THY    CA121924   9.182   6.150   1.667  0.0799 -0.4412 -0.2764
17385THY    CA221925   9.212   6.101   1.797 -0.1368  0.3209 -0.0457
17385THY    CP121926   9.234   5.954   1.837 -0.4492 -0.3549  0.8238
17385THY    HP121927   9.210   5.888   1.753 -2.9994  0.4583  0.5931
17385THY    CP221928   9.123   5.913   1.934 -0.8803 -1.2732 -0.3063
17385THY    HP221929   9.136   5.809   1.967 -0.5756  0.7921  0.3458
17385THY    HP321930   9.024   5.931   1.890 -1.1134 -0.7272 -0.2251
17385THY    HP421931   9.130   5.979   2.021  1.7451 -0.6619 -1.2806
17385THY    CP321932   9.371   5.937   1.896  0.2353 -0.2320  0.1615
17385THY    HP521933   9.371   5.986   1.994 -2.4004 -0.5842  1.0032
17385THY    HP621934   9.443   5.996   1.839 -0.0939 -0.1520  0.6513
17385THY    HP721935   9.392   5.831   1.917  1.2859 -0.5362  0.3004
17385THY    CA321936   9.225   6.201   1.899  0.4125  0.3311 -0.0532
17385THY    HA321937   9.249   6.171   2.001  2.0076 -0.3202 -1.0991
17385THY    CA421938   9.193   6.335   1.868  0.4404  0.7699  0.1038
17385THY    HA421939   9.186   6.406   1.950  3.4574  1.1255  0.1393
17385THY    CA521940   9.177   6.378   1.736 -0.2179  0.6179 -1.0144
17385THY    CM121941   9.162   6.528   1.702 -0.0323 -0.4027  0.2878
17385THY    HM121942   9.176   6.546   1.595  1.8568 -0.2115  0.1923
17385THY    HM221943   9.239   6.587   1.753  2.7071 -2.8158 -0.9584
17385THY    HM321944   9.067   6.562   1.743  0.6003  1.8510 -0.4703
17385THY    CA621945   9.170   6.281   1.635  0.7519 -0.0496 -0.2775
17385THY    HA621946   9.157   6.316   1.533 -1.2050 -0.4714 -2.0035
17386THY      O21947   4.215   4.181   3.885 -0.7212  0.3805  0.0866
17386THY     HO21948   4.162   4.251   3.926 -0.0654  0.1832  0.7149
17386THY    CA121949   4.241   4.095   3.985  0.3183 -0.5415  0.0098
17386THY    CA221950   4.371   4.081   4.033 -0.6771  0.2225 -0.2452
17386THY    CP121951   4.486   4.176   3.991  0.4499  0.3037  0.2013
17386THY    HP121952   4.456   4.232   3.901 -0.4947  0.9408  0.7352
17386THY    CP221953   4.629   4.116   3.958  0.4091  0.0123 -0.2308
17386THY    HP221954   4.694   4.190   3.911  1.5509 -0.5075 -1.5241
17386THY    HP321955   4.609   4.033   3.889 -1.9266 -0.6083  0.7770
17386THY    HP421956   4.670   4.073   4.051 -0.8501  1.6743  1.9455
17386THY    CP321957   4.491   4.296   4.093 -0.4138 -0.3132  1.4100
17386THY    HP521958   4.515   4.257   4.193 -2.0755  0.1645  1.5114
17386THY    HP621959   4.390   4.340   4.094 -0.9242  2.0791  0.3876
17386THY    HP721960   4.556   4.371   4.049 -1.6716 -0.7199  2.2975
17386THY    CA321961   4.388   3.998   4.144 -0.2587  0.1349  0.2381
17386THY    HA321962   4.480   4.002   4.202  0.0164 -0.3503  1.1683
17386THY    CA421963   4.284   3.917   4.190  0.4251 -1.2673 -0.3986
17386THY    HA421964   4.310   3.842   4.264  1.0244  2.4882  3.1712
17386THY    CA521965   4.154   3.936   4.148 -0.7258  0.1193  0.1026
17386THY    CM121966   4.039   3.860   4.211 -0.1620 -0.1001 -0.1680
17386THY    HM121967   4.008   3.775   4.148  2.0646  1.7357 -2.5128
17386THY    HM221968   3.946   3.916   4.224 -1.4582 -1.3570 -1.9307
17386THY    HM321969   4.062   3.824   4.312 -1.3498  0.7565  1.3688
17386THY    CA621970   4.129   4.021   4.037 -0.3304 -0.0195 -0.0735
17386THY    HA621971   4.028   4.038   4.002 -1.0150  1.5514 -0.6947
17387THY      O21972   3.095   0.675   5.520 -0.4856  0.2486  0.5188
17387THY     HO21973   3.031   0.739   5.557 -2.1662 -2.7015  0.7310
17387THY    CA121974   3.063   0.674   5.385 -0.0125 -0.5184  0.3219
17387THY    CA221975   3.113   0.567   5.307  0.5646 -0.2253 -0.8275
17387THY    CP121976   3.203   0.458   5.359  0.2013  0.1066  0.6350
17387THY    HP121977   3.220   0.466   5.467  1.2606 -0.0514  0.6999
17387THY    CP221978   3.348   0.461   5.303  0.2195  0.1991 -0.3008
17387THY    HP221979   3.350   0.416   5.203  0.8345  0.0257  0.1119
17387THY    HP321980   3.414   0.405   5.370  2.8693 -1.3501  0.8089
17387THY    HP421981   3.379   0.565   5.292  0.2570  2.5569 -0.0203
17387THY    CP321982   3.133   0.325   5.321  0.1842  0.7442  0.4657
17387THY    HP521983   3.139   0.319   5.212 -0.0952  0.5914  2.4403
17387THY    HP621984   3.030   0.332   5.357 -0.3274 -0.9372  2.6283
17387THY    HP721985   3.184   0.238   5.364 -2.8831 -1.0391 -2.4485
17387THY    CA321986   3.089   0.567   5.173  0.2647  0.4115 -0.1676
17387THY    HA321987   3.140   0.495   5.108  0.3426  0.1046  0.1648
17387THY    CA421988   2.997   0.663   5.112 -0.1851  0.2563  1.0524
17387THY    HA421989   2.973   0.666   5.006  0.6739  0.0606  1.3475
17387THY    CA521990   2.935   0.756   5.195 -0.4653  0.3735 -0.3892
17387THY    CM121991   2.849   0.862   5.144 -0.5556  0.1560  0.4040
17387THY    HM121992   2.752   0.845   5.193  0.2912  1.1875 -1.8680
17387THY    HM221993   2.844   0.862   5.035 -1.2750  0.1797 -0.3510
17387THY    HM321994   2.892   0.962   5.161 -0.1507 -1.5595  0.5469
17387THY    CA621995   2.972   0.767   5.329  0.2779 -0.4911 -0.1034
17387THY    HA621996   2.929   0.842   5.395  1.8233  0.1138  0.2840
17388THY      O21997   0.421   5.924   6.090 -0.9265  0.4062  0.1181
17388THY     HO21998   0.327   5.909   6.069 -0.8341 -1.3277  1.6890
17388THY    CA121999   0.422   5.975   6.213  0.1364  0.0964 -0.2349
17388THY    CA222000   0.540   6.033   6.267  0.2104 -0.2196  0.5150
17388THY    CP122001   0.658   6.063   6.178 -1.1970  0.7112 -0.1285
17388THY    HP122002   0.664   5.995   6.092  3.2174  0.2585  0.5668
17388THY    CP222003   0.794   6.024   6.234 -0.4034 -0.0252 -1.6865
17388THY    HP222004   0.810   5.916   6.235 -0.9171 -0.3626 -1.7683
17388THY    HP322005   0.815   6.070   6.331  1.7073 -0.3565 -1.8380
17388THY    HP422006   0.874   6.064   6.170 -1.0014  1.1831  1.7575
17388THY    CP322007   0.653   6.211   6.131  0.3975 -0.2465  0.3372
17388THY    HP522008   0.565   6.219   6.066 -2.7691  3.0401 -3.2478
17388THY    HP622009   0.749   6.241   6.089 -0.7096 -1.8758  1.8003
17388THY    HP722010   0.633   6.280   6.214 -0.6225  0.0942 -0.3419
17388THY    CA322011   0.537   6.076   6.396  0.1527 -0.6709  0.3761
17388THY    HA322012   0.619   6.131   6.442  1.9131 -0.2595 -2.3927
17388THY    CA422013   0.425   6.055   6.476  0.1065 -0.5062 -0.3265
17388THY    HA422014   0.428   6.092   6.578  0.8813 -0.5719 -0.1725
17388THY    CA522015   0.315   5.996   6.427  0.0674 -0.1389 -0.5314
17388THY    CM122016   0.188   5.989   6.507  0.0080  0.5280  0.5978
17388THY    HM122017   0.157   5.885   6.515  1.3034 -1.4654  0.0088
17388THY    HM222018   0.108   6.043   6.455 -0.1710 -1.8251 -1.7646
17388THY    HM322019   0.216   6.021   6.608  3.2314 -0.2011  0.5059
17388THY    CA622020   0.317   5.955   6.291 -0.0017 -0.0032 -0.0600
17388THY    HA622021   0.228   5.901   6.260  0.5057 -0.7528 -0.4965
17389THY      O22022   3.557   2.898   4.523  0.4114 -0.2093 -0.3426
17389THY     HO22023   3.503   2.880   4.602 -1.3818 -1.8974 -3.0828
17389THY    CA122024   3.563   2.778   4.459  0.2266  0.1601  0.0694
17389THY    CA222025   3.682   2.735   4.400  0.3560 -0.3146 -0.1625
17389THY    CP122026   3.809   2.824   4.404  0.3553 -0.1427  0.0887
17389THY    HP122027   3.820   2.860   4.507  0.2286  0.1640 -0.7217
17389THY    CP222028   3.795   2.950   4.324 -0.0021  0.7085 -0.4143
17389THY    HP222029   3.897   2.987   4.311  0.3293  2.0538 -0.7810
17389THY    HP322030   3.728   3.022   4.374  0.1137 -1.5870  1.3869
17389THY    HP422031   3.749   2.934   4.226  0.1453  0.8175 -1.5702
17389THY    CP322032   3.935   2.749   4.362  0.7754  0.7469  0.1260
17389THY    HP522033   3.929   2.735   4.253  0.0027  0.8398 -0.3250
17389THY    HP622034   3.932   2.657   4.422 -0.4425  0.1081 -0.2723
17389THY    HP722035   4.030   2.802   4.379  0.5930 -2.4405  1.7235
17389THY    CA322036   3.672   2.613   4.326  0.4918 -0.2443 -0.2691
17389THY    HA322037   3.754   2.578   4.264  2.0471  1.5732 -0.0373
17389THY    CA422038   3.556   2.540   4.324  0.2040  0.1248 -0.2043
17389THY    HA422039   3.546   2.442   4.280 -4.3902  2.4373 -1.0779
17389THY    CA522040   3.443   2.587   4.392 -0.8835 -0.3592  0.5209
17389THY    CM122041   3.316   2.506   4.400 -0.2214  0.1361  0.2762
17389THY    HM122042   3.275   2.509   4.298  2.8418 -1.1882  0.2338
17389THY    HM222043   3.245   2.545   4.474 -0.0294  0.5119 -0.0836
17389THY    HM322044   3.335   2.401   4.424 -0.8278 -1.1769 -0.1565
17389THY    CA622045   3.442   2.713   4.449  0.5768 -0.5116  0.3060
17389THY    HA622046   3.349   2.756   4.485  0.4652 -0.4586  0.0261
17390THY      O22047   1.837   2.726   3.085  0.0720 -0.6177  1.0869
17390THY     HO22048   1.922   2.685   3.061 -0.5010  2.4729 -2.4832
17390THY    CA122049   1.825   2.698   3.220  0.0206 -0.0148 -0.2400
17390THY    CA222050   1.701   2.706   3.284  0.3319 -0.6474  0.7334
17390THY    CP122051   1.565   2.752   3.213 -0.8222 -0.2960  0.3378
17390THY    HP122052   1.594   2.808   3.123  1.3573 -0.5160 -1.0091
17390THY    CP222053   1.483   2.846   3.303 -0.4627 -0.9416  0.4407
17390THY    HP222054   1.408   2.914   3.262 -1.0608  0.9168  0.9754
17390THY    HP322055   1.544   2.911   3.367 -1.8436  1.8508 -0.8203
17390THY    HP422056   1.420   2.784   3.368  0.2090  1.4455  2.1276
17390THY    CP322057   1.475   2.640   3.175  0.6846 -0.7085  0.1521
17390THY    HP522058   1.377   2.663   3.132  0.5305 -0.0988  0.6472
17390THY    HP622059   1.452   2.583   3.266  3.4998 -0.5835 -0.9784
17390THY    HP722060   1.535   2.578   3.107  0.4392  0.7788 -1.8436
17390THY    CA322061   1.699   2.674   3.415  0.5378  0.1171 -0.3375
17390THY    HA322062   1.607   2.676   3.474  1.8303  2.2135  0.5333
17390THY    CA422063   1.806   2.623   3.479  0.6634  0.0242 -0.0156
17390THY    HA422064   1.790   2.580   3.578  0.8007 -0.8874 -2.3478
17390THY    CA522065   1.934   2.612   3.412  0.1939 -0.4841 -0.3073
17390THY    CM122066   2.050   2.564   3.493 -0.3385  0.3818 -0.4865
17390THY    HM122067   2.034   2.558   3.602  2.7438  1.1157  2.0065
17390THY    HM222068   2.127   2.640   3.479  1.4444  1.9719 -1.8777
17390THY    HM322069   2.092   2.472   3.451  1.8826 -0.7288  0.9522
17390THY    CA622070   1.942   2.652   3.277  0.9071 -0.5800  0.2628
17390THY    HA622071   2.034   2.643   3.221  1.8611  1.0595 -0.7482
17391THY      O22072   0.803   5.680   2.118  0.7569 -0.0507  0.2503
17391THY     HO22073   0.728   5.630   2.155  0.4762 -1.3771 -0.3718
17391THY    CA122074   0.758   5.707   1.993 -0.4525 -0.2022 -0.2560
17391THY    CA222075   0.836   5.714   1.880 -0.4646  0.2302  0.2617
17391THY    CP122076   0.990   5.721   1.897  0.8663 -0.6669  0.3073
17391THY    HP122077   1.027   5.726   2.001  0.2189 -0.3453 -1.0324
17391THY    CP222078   1.045   5.841   1.822 -0.0578 -0.5814 -0.1572
17391THY    HP222079   0.989   5.927   1.860 -0.7261  1.5795 -1.4647
17391THY    HP322080   1.045   5.825   1.714  0.8935 -0.4526 -1.2091
17391THY    HP422081   1.148   5.844   1.860 -0.0039 -0.5571 -1.5001
17391THY    CP322082   1.041   5.589   1.835  0.0309 -0.3772 -0.4170
17391THY    HP522083   1.060   5.592   1.727  1.7818 -0.0898 -0.0760
17391THY    HP622084   0.982   5.507   1.878  1.0582  5.2685  1.3815
17391THY    HP722085   1.145   5.579   1.869  0.1306 -1.3127 -3.7161
17391THY    CA322086   0.769   5.721   1.756  0.6161 -0.1252 -0.0871
17391THY    HA322087   0.823   5.718   1.661 -2.8065 -2.2526 -3.3076
17391THY    CA422088   0.630   5.740   1.751  0.3539  0.3016  1.2965
17391THY    HA422089   0.589   5.749   1.651 -0.9912  0.7150  0.1110
17391THY    CA522090   0.554   5.733   1.864  0.3214  0.0832  0.4551
17391THY    CM122091   0.403   5.738   1.862 -0.2251 -0.2297  0.4604
17391THY    HM122092   0.364   5.680   1.946  1.6374  0.7349  0.5527
17391THY    HM222093   0.378   5.686   1.768  0.8463 -0.0819 -0.3682
17391THY    HM322094   0.372   5.842   1.873 -0.6336 -0.2707  0.3444
17391THY    CA622095   0.620   5.711   1.988 -0.1927 -0.9882  0.3704
17391THY    HA622096   0.561   5.706   2.079 -0.5957 -1.1728  1.4422
17392THY      O22097   7.990   6.893   5.455  0.0718  0.1812  0.0670
17392THY     HO22098   8.078   6.853   5.463 -1.1457  0.0908 -2.8398
17392THY    CA122099   7.968   6.958   5.571  0.9765 -0.0486  0.2847
17392THY    CA222100   7.837   6.989   5.607  0.2050 -0.1049  0.0348
17392THY    CP122101   7.715   6.965   5.515 -0.4390 -0.5014 -0.6335
17392THY    HP122102   7.741   6.896   5.434  0.6257  1.2545 -2.3939
17392THY    CP222103   7.679   7.104   5.447  0.0000  0.0645  0.2859
17392THY    HP222104   7.639   7.181   5.514 -2.1309  0.6343 -1.2243
17392THY    HP322105   7.601   7.089   5.372  0.2690  0.2157 -2.3605
17392THY    HP422106   7.772   7.137   5.398 -0.3682 -1.2659 -0.5687
17392THY    CP322107   7.594   6.915   5.601  0.0969  0.3591 -0.1123
17392THY    HP522108   7.632   6.829   5.657  0.5362  0.6357  0.2559
17392THY    HP622109   7.514   6.879   5.536 -1.2249  0.4204  2.4787
17392THY    HP722110   7.550   6.974   5.682 -0.5773  0.0922 -0.2505
17392THY    CA322111   7.816   7.058   5.727  0.6017 -0.1583  0.3590
17392THY    HA322112   7.718   7.095   5.754  0.1348  0.3070 -1.1220
17392THY    CA422113   7.925   7.097   5.806  0.0612  0.7909  0.0879
17392THY    HA422114   7.907   7.147   5.901 -2.7377 -0.5135  1.8675
17392THY    CA522115   8.055   7.061   5.771 -0.3336 -0.5899  0.1515
17392THY    CM122116   8.178   7.103   5.852 -0.5711  0.0984  0.7526
17392THY    HM122117   8.262   7.129   5.786  0.7969  0.6500 -1.9264
17392THY    HM222118   8.223   7.017   5.903 -0.9658 -2.9962 -1.4527
17392THY    HM322119   8.169   7.176   5.933 -1.9986  2.5697 -1.9403
17392THY    CA622120   8.074   6.987   5.652  0.6206  0.6929 -0.2509
17392THY    HA622121   8.173   6.959   5.618  0.9263  1.0652  0.3808
17393THY      O22122   5.248   6.480   2.686 -0.1015  0.3271 -0.1752
17393THY     HO22123   5.225   6.464   2.593  0.4355  0.1772 -0.1029
17393THY    CA122124   5.194   6.600   2.702 -0.6841 -0.8423 -0.3088
17393THY    CA222125   5.256   6.704   2.785  0.4393 -0.0983  0.4320
17393THY    CP122126   5.393   6.681   2.855 -0.3745 -0.2464 -0.9466
17393THY    HP122127   5.422   6.576   2.856  0.2533 -0.1252 -0.7740
17393THY    CP222128   5.383   6.729   3.000 -0.1666 -1.0440  0.8017
17393THY    HP222129   5.381   6.839   3.004 -0.7920 -0.3869  0.7764
17393THY    HP322130   5.473   6.704   3.057 -0.7932 -0.6721 -0.6772
17393THY    HP422131   5.288   6.697   3.044 -1.3469 -2.9682  1.4813
17393THY    CP322132   5.495   6.762   2.783 -0.2235 -0.4723  0.0727
17393THY    HP522133   5.593   6.738   2.827  0.0958 -0.9176  0.5461
17393THY    HP622134   5.473   6.869   2.789 -3.1705  0.1338 -0.4940
17393THY    HP722135   5.502   6.735   2.677  2.4898 -0.7966  1.6263
17393THY    CA322136   5.189   6.827   2.783 -0.2564 -0.2509 -0.3633
17393THY    HA322137   5.231   6.910   2.839  0.9819 -0.7356 -0.6360
17393THY    CA422138   5.074   6.838   2.707  0.0568 -0.2614 -0.0703
17393THY    HA422139   5.011   6.927   2.706 -0.6051 -1.2582 -0.5396
17393THY    CA522140   5.019   6.734   2.643 -0.3824 -0.0393  0.6576
17393THY    CM122141   4.876   6.747   2.591  0.2803  0.2468  0.3432
17393THY    HM122142   4.880   6.777   2.486  1.7611 -0.7675 -2.9062
17393THY    HM222143   4.816   6.819   2.649 -1.2103  1.2249 -1.5936
17393THY    HM322144   4.816   6.656   2.601 -1.4512 -0.5025  1.3396
17393THY    CA622145   5.078   6.610   2.639  0.0668  0.1852  0.2442
17393THY    HA622146   5.045   6.522   2.585  4.6651 -0.9090 -1.0927
17394THY      O22147   8.753   3.542   6.102  0.4068 -0.0156  0.1184
17394THY     HO22148   8.836   3.538   6.051  0.2507 -0.2161 -1.0558
17394THY    CA122149   8.718   3.668   6.114  0.3237  0.5249 -0.5330
17394THY    CA222150   8.591   3.711   6.108  0.1999  0.6671 -0.5548
17394THY    CP122151   8.473   3.621   6.079 -0.2921  0.1148  0.8133
17394THY    HP122152   8.493   3.559   5.991 -2.3689  0.2516 -0.1243
17394THY    CP222153   8.337   3.692   6.036 -0.9307 -0.2012  0.0688
17394THY    HP222154   8.271   3.609   6.008 -1.0050  0.0395  0.0435
17394THY    HP322155   8.356   3.758   5.951 -1.3240 -1.2557 -1.1268
17394THY    HP422156   8.288   3.740   6.121  0.1896  0.6567 -0.2626
17394THY    CP322157   8.437   3.521   6.191  0.7508  0.2549 -0.3886
17394THY    HP522158   8.404   3.582   6.276 -1.6152 -0.4319 -0.6337
17394THY    HP622159   8.525   3.463   6.223  1.8491  0.9510  1.5695
17394THY    HP722160   8.372   3.441   6.153 -0.4045 -1.6816  1.3787
17394THY    CA322161   8.567   3.852   6.110 -0.3281  0.0284  0.6763
17394THY    HA322162   8.468   3.897   6.109 -0.4842  1.1371  0.3969
17394THY    CA422163   8.674   3.945   6.123  0.2791 -0.4513 -0.0184
17394THY    HA422164   8.657   4.051   6.135 -1.8287 -0.8395 -0.2824
17394THY    CA522165   8.809   3.892   6.118 -0.4115 -0.4584 -0.7744
17394THY    CM122166   8.927   3.981   6.163 -0.0171  0.0456 -0.4132
17394THY    HM122167   8.965   4.027   6.072  0.0540  0.7598  1.0061
17394THY    HM222168   9.013   3.942   6.219  1.8040 -1.3366  1.3596
17394THY    HM322169   8.875   4.060   6.219 -0.3247 -1.9144  0.8481
17394THY    CA622170   8.833   3.753   6.120  0.0027 -0.2543  0.0405
17394THY    HA622171   8.927   3.702   6.142  0.0397 -1.3000 -0.3571
17395THY      O22172   3.678   7.926   3.196 -0.1988 -0.2066  0.3967
17395THY     HO22173   3.745   7.924   3.125 -0.1541 -0.2256  1.6602
17395THY    CA122174   3.736   7.972   3.314  0.1515 -0.1141  0.1419
17395THY    CA222175   3.664   7.975   3.435 -1.8475 -0.3815  0.2726
17395THY    CP122176   3.519   7.943   3.433 -0.2051  0.2196 -0.8480
17395THY    HP122177   3.489   7.914   3.332  0.9298 -0.1157 -0.8970
17395THY    CP222178   3.426   8.060   3.470  0.5592 -0.2287 -0.5185
17395THY    HP222179   3.323   8.031   3.444  0.0358 -0.8301  1.7069
17395THY    HP322180   3.442   8.159   3.426 -2.0637 -1.6282 -0.6233
17395THY    HP422181   3.435   8.082   3.577  2.7187 -0.7761  1.7320
17395THY    CP322182   3.485   7.831   3.528 -0.0254  0.3385 -0.0640
17395THY    HP522183   3.380   7.806   3.504  0.1595 -1.5434  0.7624
17395THY    HP622184   3.489   7.846   3.636  0.3313  0.9486 -3.5695
17395THY    HP722185   3.555   7.749   3.509  0.9576 -1.6684  1.1704
17395THY    CA322186   3.733   7.994   3.554 -0.1271  0.6341  0.0821
17395THY    HA322187   3.678   7.990   3.647  2.1987  2.0617 -0.6408
17395THY    CA422188   3.870   8.018   3.560 -0.1447  0.4231 -0.4000
17395THY    HA422189   3.921   8.050   3.650 -1.1602  1.6247 -1.9883
17395THY    CA522190   3.939   8.026   3.437  0.0367  0.4484  0.2067
17395THY    CM122191   4.090   8.058   3.423 -0.6316  0.3889 -0.4807
17395THY    HM122192   4.154   8.041   3.511 -1.2326  0.6618 -1.4507
17395THY    HM222193   4.093   8.167   3.413 -1.9249  0.2860 -0.4386
17395THY    HM322194   4.137   7.999   3.343 -1.9739 -0.0797 -0.9601
17395THY    CA622195   3.875   7.999   3.317  0.0140 -0.7357 -0.8045
17395THY    HA622196   3.927   7.989   3.222  0.6553 -0.6522  1.2188
17396THY      O22197   3.659   8.103   2.344 -0.2170 -0.4021 -0.0268
17396THY     HO22198   3.669   8.126   2.438 -0.6267 -0.6557  1.2563
17396THY    CA122199   3.782   8.128   2.291  0.7209  0.0330 -0.0276
17396THY    CA222200   3.813   8.128   2.151  0.5522 -0.2450  0.1703
17396THY    CP122201   3.700   8.107   2.047  0.1421 -0.1435 -1.0418
17396THY    HP122202   3.607   8.086   2.100 -1.0227 -2.2432 -1.5020
17396THY    CP222203   3.712   7.983   1.963 -0.1564  0.3247 -0.5198
17396THY    HP222204   3.799   7.986   1.897  1.3505  2.2674 -0.2223
17396THY    HP322205   3.628   7.957   1.896 -1.0494  2.2347 -2.9686
17396THY    HP422206   3.716   7.897   2.031  0.4107  3.0507  1.5506
17396THY    CP322207   3.688   8.233   1.952 -0.1990 -0.6339  0.5426
17396THY    HP522208   3.605   8.219   1.882 -2.3185  1.5112  1.5845
17396THY    HP622209   3.783   8.254   1.902  0.8144  1.3841  0.9814
17396THY    HP722210   3.663   8.320   2.013  2.1618 -0.4185  1.1153
17396THY    CA322211   3.943   8.141   2.110 -0.1110 -0.4617  0.2048
17396THY    HA322212   3.968   8.143   2.005 -0.1786 -0.4774  0.2492
17396THY    CA422213   4.034   8.174   2.209 -0.3010  0.6854  0.0331
17396THY    HA422214   4.137   8.190   2.180  0.0946  1.6144 -0.7048
17396THY    CA522215   4.008   8.187   2.343  0.0080  0.5309 -0.3472
17396THY    CM122216   4.114   8.226   2.441  0.4230 -0.3172  0.0716
17396THY    HM122217   4.189   8.285   2.385  0.2411 -1.2675 -0.5700
17396THY    HM222218   4.152   8.132   2.481  2.8390  1.6377  1.7281
17396THY    HM322219   4.069   8.287   2.520  0.8065  0.5640 -0.7828
17396THY    CA622220   3.880   8.162   2.383 -0.0906 -0.5202  0.1200
17396THY    HA622221   3.858   8.168   2.489 -0.2879 -0.4756 -1.0678
17397THY      O22222   9.111   0.914   5.052 -0.2499  0.3609  0.0793
17397THY     HO22223   9.082   0.833   5.007  1.1974 -0.6075  0.0566
17397THY    CA122224   9.190   0.966   4.951  0.7558 -0.6368 -0.0333
17397THY    CA222225   9.299   1.048   4.980 -0.3702 -0.4311 -0.3230
17397THY    CP122226   9.298   1.118   5.117 -0.1853 -0.0113  0.1207
17397THY    HP122227   9.264   1.047   5.194 -1.7887  0.8472  1.7258
17397THY    CP222228   9.197   1.237   5.119 -0.1280 -0.1972  0.1056
17397THY    HP222229   9.114   1.213   5.051 -0.5576 -0.2398  1.6128
17397THY    HP322230   9.230   1.325   5.063  0.4481 -0.2694 -0.1497
17397THY    HP422231   9.163   1.262   5.220 -1.3565 -0.4772 -0.3629
17397THY    CP322232   9.437   1.167   5.163  0.5112 -0.8250  0.2070
17397THY    HP522233   9.518   1.097   5.142  1.1642 -1.6262  1.1760
17397THY    HP622234   9.423   1.190   5.269  0.0379 -0.8518  0.0601
17397THY    HP722235   9.480   1.259   5.122  0.0086 -0.7575  0.4751
17397THY    CA322236   9.371   1.097   4.867  0.6126  0.2549 -0.0569
17397THY    HA322237   9.438   1.182   4.872  1.2144 -0.5400 -0.4679
17397THY    CA422238   9.352   1.037   4.742 -0.0570  0.1650 -0.2678
17397THY    HA422239   9.404   1.088   4.662 -0.0981  0.0049 -0.4783
17397THY    CA522240   9.250   0.954   4.722 -0.1130  0.8772  0.0794
17397THY    CM122241   9.216   0.890   4.588  0.5450 -0.4050  0.7188
17397THY    HM122242   9.235   0.784   4.604 -2.0925 -0.4600  0.1618
17397THY    HM222243   9.268   0.936   4.503 -0.5371 -1.8406 -0.6069
17397THY    HM322244   9.109   0.888   4.565  0.7328 -1.8911  3.0714
17397THY    CA622245   9.171   0.918   4.825 -0.1511  0.5230 -0.0611
17397THY    HA622246   9.105   0.834   4.804 -0.0589  1.0744 -0.2811
17398THY      O22247   3.976   8.926   3.756 -0.3046  0.1356 -0.2809
17398THY     HO22248   3.937   8.843   3.789  0.1261  0.7449 -0.2460
17398THY    CA122249   3.904   8.967   3.645  0.0752 -1.0459  0.8474
17398THY    CA222250   3.957   9.053   3.548 -0.0078  0.4482 -0.0334
17398THY    CP122251   4.095   9.119   3.554 -0.9213 -0.3266 -0.5602
17398THY    HP122252   4.147   9.078   3.641  0.1331 -1.4933 -1.7895
17398THY    CP222253   4.101   9.271   3.574 -0.3159  0.5957  0.0163
17398THY    HP222254   4.058   9.305   3.669  0.3470  0.5653  0.9880
17398THY    HP322255   4.073   9.330   3.486 -0.2343 -0.8368 -1.9920
17398THY    HP422256   4.207   9.296   3.589  0.1779  1.2274 -2.2374
17398THY    CP322257   4.188   9.079   3.440 -0.4500  1.1405 -0.3778
17398THY    HP522258   4.139   9.109   3.346 -1.7776  0.9753 -2.7908
17398THY    HP622259   4.214   8.972   3.437  0.1399 -3.4688 -0.3119
17398THY    HP722260   4.284   9.130   3.448 -0.5134 -2.3669  0.5673
17398THY    CA322261   3.866   9.083   3.443 -0.1491 -0.0354 -0.3165
17398THY    HA322262   3.898   9.157   3.371  1.1099 -0.3505 -1.1566
17398THY    CA422263   3.737   9.030   3.435 -0.8868 -0.3171  0.4931
17398THY    HA422264   3.670   9.044   3.350 -3.0039  0.7449 -2.1384
17398THY    CA522265   3.692   8.948   3.545  0.5889 -0.7329 -0.0890
17398THY    CM122266   3.548   8.897   3.536  0.1340  0.1148 -0.5297
17398THY    HM122267   3.473   8.977   3.524  1.6648 -0.5650  0.8690
17398THY    HM222268   3.521   8.843   3.627 -1.2711 -0.1362 -0.2957
17398THY    HM322269   3.532   8.839   3.445 -0.5704 -0.4449  0.4968
17398THY    CA622270   3.782   8.908   3.640 -0.0032 -0.3462  0.4966
17398THY    HA622271   3.740   8.853   3.724  2.8787  0.1601 -1.1455
17399THY      O22272   4.771   2.452   7.291  0.2570 -0.1896  0.0629
17399THY     HO22273   4.829   2.507   7.346  1.9025 -1.7699  0.0039
17399THY    CA122274   4.846   2.393   7.194 -0.2518  0.0859 -0.0610
17399THY    CA222275   4.800   2.293   7.094 -0.3728  0.0377 -1.1629
17399THY    CP122276   4.651   2.261   7.085  0.7433  0.1171 -0.2483
17399THY    HP122277   4.595   2.297   7.172 -1.0569 -0.4134 -1.6094
17399THY    CP222278   4.625   2.115   7.089 -0.1522 -0.5287  0.0224
17399THY    HP222279   4.704   2.055   7.043  0.0819 -3.2476  2.2266
17399THY    HP322280   4.528   2.086   7.046  1.0708 -1.9808 -2.1178
17399THY    HP422281   4.619   2.075   7.191  1.4196 -1.4049 -2.6524
17399THY    CP322282   4.596   2.333   6.962  0.3176 -0.4147  0.5468
17399THY    HP522283   4.601   2.442   6.978  0.1901 -3.2142  1.0260
17399THY    HP622284   4.491   2.308   6.948  0.5980 -1.3999 -0.1281
17399THY    HP722285   4.651   2.290   6.878 -0.6465  0.2387 -2.1658
17399THY    CA322286   4.901   2.240   7.012 -0.3880  0.8470 -0.2266
17399THY    HA322287   4.873   2.157   6.946 -0.2221  0.0067  0.3700
17399THY    CA422288   5.041   2.273   7.022 -0.7341  0.2997  0.3715
17399THY    HA422289   5.117   2.233   6.955  0.2551 -0.8955  3.9101
17399THY    CA522290   5.076   2.367   7.113  0.0633 -0.8334 -0.1426
17399THY    CM122291   5.222   2.415   7.122 -0.0135  0.2795 -0.9255
17399THY    HM122292   5.264   2.409   7.021 -0.5371 -0.1750  1.7724
17399THY    HM222293   5.284   2.356   7.190  1.4702  1.8682  2.2123
17399THY    HM322294   5.238   2.515   7.165  2.6455 -1.4027 -0.4993
17399THY    CA622295   4.982   2.426   7.194 -0.6195 -0.7008  1.0512
17399THY    HA622296   5.025   2.491   7.270 -0.7285 -1.2086  1.7341
17400THY      O22297   8.289   7.964   2.602  0.4194  0.4543 -0.1338
17400THY     HO22298   8.247   7.878   2.586 -0.2099 -2.5050  0.6089
17400THY    CA122299   8.365   7.956   2.713  0.2742  0.2968 -0.7094
17400THY    CA222300   8.390   8.069   2.793  0.2870 -0.9534 -0.6231
17400THY    CP122301   8.323   8.202   2.758  0.4175  0.0111  0.0476
17400THY    HP122302   8.281   8.200   2.657  1.5524 -0.5330  1.3781
17400THY    CP222303   8.420   8.326   2.770  0.5787 -0.7571  0.4340
17400THY    HP222304   8.358   8.413   2.744 -0.4244  0.6853  0.1893
17400THY    HP322305   8.512   8.320   2.710  1.7673  0.7904  1.9407
17400THY    HP422306   8.444   8.337   2.877 -0.8997 -0.4187  0.5489
17400THY    CP322307   8.206   8.231   2.852  0.4085 -0.0438  0.6173
17400THY    HP522308   8.154   8.322   2.820 -1.9806 -0.7932 -0.9310
17400THY    HP622309   8.230   8.247   2.958  1.1872  0.2452 -2.0482
17400THY    HP722310   8.126   8.158   2.839  0.2671 -0.1837  0.7941
17400THY    CA322311   8.470   8.051   2.911 -0.0436  0.3490 -0.0098
17400THY    HA322312   8.483   8.139   2.973  0.7198 -1.6235  1.3447
17400THY    CA422313   8.515   7.923   2.949 -0.0742  0.0606  0.0592
17400THY    HA422314   8.578   7.908   3.036  1.1581 -1.0011 -1.1639
17400THY    CA522315   8.511   7.828   2.849  0.1202  0.6210  0.2355
17400THY    CM122316   8.590   7.704   2.862 -0.9354  0.2895  0.6153
17400THY    HM122317   8.693   7.711   2.825 -0.1024  1.9503 -1.5301
17400THY    HM222318   8.540   7.628   2.800 -0.9164  0.3995  0.5140
17400THY    HM322319   8.601   7.651   2.957 -0.8814 -0.6480 -1.1411
17400THY    CA622320   8.419   7.838   2.740  0.2692 -0.0829  0.5359
17400THY    HA622321   8.405   7.750   2.678  2.9473 -0.8106  0.5184
17401THY      O22322   5.200   7.002   3.930  0.4740  0.0849  0.1876
17401THY     HO22323   5.200   7.009   4.027  0.8660  0.2371 -1.4039
17401THY    CA122324   5.331   7.023   3.897  0.5169  0.2928  0.2376
17401THY    CA222325   5.389   7.008   3.770  0.5781 -0.3133 -0.3788
17401THY    CP122326   5.301   6.981   3.649  0.4883  0.2276 -0.0389
17401THY    HP122327   5.198   6.959   3.679  0.0058 -1.0887  0.3307
17401THY    CP222328   5.355   6.861   3.564  0.1406  0.8601  0.2498
17401THY    HP222329   5.452   6.881   3.518 -0.7821 -1.7493 -0.8649
17401THY    HP322330   5.293   6.834   3.478  0.0296  0.3869  1.9442
17401THY    HP422331   5.358   6.774   3.631  0.0457  1.3701  0.6366
17401THY    CP322332   5.282   7.103   3.561 -0.9452 -0.1156  0.5739
17401THY    HP522333   5.232   7.182   3.620 -2.4009 -0.3643 -0.1403
17401THY    HP622334   5.225   7.078   3.471 -0.3915 -0.2246 -0.3330
17401THY    HP722335   5.384   7.131   3.532 -1.4227 -2.0392  0.4607
17401THY    CA322336   5.530   7.024   3.762 -0.4582 -0.3199  0.3883
17401THY    HA322337   5.581   7.009   3.668 -1.6522 -1.4450  2.7822
17401THY    CA422338   5.601   7.046   3.876  0.5090 -0.4821  0.4767
17401THY    HA422339   5.708   7.050   3.861  0.5817 -0.9954 -1.8373
17401THY    CA522340   5.538   7.057   4.007 -1.2405  0.4066  0.0437
17401THY    CM122341   5.617   7.072   4.130 -0.6937 -0.0379  0.3632
17401THY    HM122342   5.607   6.981   4.191 -1.3231 -0.3277  0.2330
17401THY    HM222343   5.584   7.149   4.200  0.4822  0.7274  0.2067
17401THY    HM322344   5.725   7.061   4.114 -0.4488 -0.2609  2.6309
17401THY    CA622345   5.399   7.044   4.013 -0.4779 -0.2183  0.2485
17401THY    HA622346   5.351   7.057   4.109 -1.2469 -0.7517  1.5722
17402THY      O22347   1.022   8.189   4.374 -0.1956  0.5897 -0.4760
17402THY     HO22348   1.095   8.133   4.406  2.1940 -0.8733  1.5998
17402THY    CA122349   1.016   8.166   4.242 -0.2392  0.7049  0.0656
17402THY    CA222350   0.938   8.235   4.153  0.3488 -0.3942  0.1636
17402THY    CP122351   0.861   8.361   4.187 -0.2655 -0.2213 -0.4165
17402THY    HP122352   0.893   8.389   4.288  1.5912 -0.1985 -2.3160
17402THY    CP222353   0.715   8.342   4.194  0.0554  0.1789  0.5210
17402THY    HP222354   0.713   8.236   4.221  1.0594  1.2348  0.7652
17402THY    HP322355   0.674   8.363   4.094  0.6435  0.1731  1.7382
17402THY    HP422356   0.669   8.414   4.263 -1.1218 -1.0811  1.0344
17402THY    CP322357   0.886   8.482   4.096  0.0116  1.0561 -0.3845
17402THY    HP522358   0.819   8.566   4.120  0.9119 -0.4112  0.8161
17402THY    HP622359   0.867   8.455   3.991  3.3731  0.4275 -0.7404
17402THY    HP722360   0.989   8.517   4.112 -0.4751  1.3680  0.9772
17402THY    CA322361   0.931   8.197   4.013  0.1504 -0.1548 -0.7988
17402THY    HA322362   0.852   8.244   3.955 -0.1672  0.7935 -0.1260
17402THY    CA422363   1.013   8.086   3.970  0.4522  0.5646  0.4622
17402THY    HA422364   1.009   8.053   3.867  1.4377  0.9372 -0.9202
17402THY    CA522365   1.108   8.027   4.059  0.5026 -0.7159  0.0884
17402THY    CM122366   1.193   7.910   4.011  0.6655 -0.4302  0.0250
17402THY    HM122367   1.249   7.947   3.925  1.1886  0.3552  1.1284
17402THY    HM222368   1.131   7.825   3.978  1.8346  1.4700 -1.6503
17402THY    HM322369   1.257   7.881   4.095  0.9007  0.9032  3.8318
17402THY    CA622370   1.099   8.060   4.193 -0.2411 -0.0835 -0.4802
17402THY    HA622371   1.155   7.997   4.262  1.7160 -1.6359 -0.5378
17403THY      O22372   8.268   5.961   3.454  0.1562 -0.1097  0.1121
17403THY     HO22373   8.330   6.013   3.401  0.2575 -3.3234 -2.8869
17403THY    CA122374   8.225   6.044   3.554  0.9103  0.5228  0.1230
17403THY    CA222375   8.091   6.050   3.603  0.2309  0.1737 -0.3035
17403THY    CP122376   7.986   5.950   3.554 -0.0792  0.7206  0.0461
17403THY    HP122377   8.036   5.870   3.498  0.9875  1.3154  0.2772
17403THY    CP222378   7.872   6.009   3.472 -0.5779 -0.1397  0.2371
17403THY    HP222379   7.825   5.925   3.419  1.5899 -0.5636 -0.7703
17403THY    HP322380   7.906   6.072   3.388 -0.2278 -2.7620 -3.1721
17403THY    HP422381   7.804   6.062   3.540 -0.5833 -0.1385  0.2287
17403THY    CP322382   7.929   5.886   3.674  0.3013  0.6243 -0.0818
17403THY    HP522383   8.007   5.824   3.722  0.5089 -2.7218 -2.6698
17403THY    HP622384   7.845   5.821   3.648 -0.3344 -0.7530  1.2452
17403THY    HP722385   7.884   5.965   3.736 -0.1393  1.5071 -0.9897
17403THY    CA322386   8.059   6.158   3.693 -0.4952 -0.6711  0.2549
17403THY    HA322387   7.961   6.178   3.734 -0.3128 -0.7810  1.4574
17403THY    CA422388   8.159   6.249   3.720  0.6272 -0.3778 -0.4148
17403THY    HA422389   8.133   6.336   3.780  1.6504 -2.7696  1.6593
17403THY    CA522390   8.286   6.239   3.667 -0.6234 -0.0246  0.3085
17403THY    CM122391   8.391   6.329   3.705 -0.4081 -0.3792  0.0072
17403THY    HM122392   8.356   6.391   3.788 -1.1984 -0.3235 -0.5001
17403THY    HM222393   8.413   6.388   3.615 -0.8060 -0.8426 -0.5282
17403THY    HM322394   8.478   6.274   3.744 -1.3795  1.0086 -0.5839
17403THY    CA622395   8.317   6.131   3.588  0.5011  0.3821 -0.2050
17403THY    HA622396   8.421   6.122   3.556  0.8461  0.5240  2.4332
17404THY      O22397   1.946   0.923   4.190  0.2437  0.2847  0.0732
17404THY     HO22398   1.937   0.929   4.093 -1.5077  0.5160  2.1788
17404THY    CA122399   1.826   0.879   4.237  0.0606  0.3322 -0.3450
17404THY    CA222400   1.799   0.863   4.377  0.4142  0.0827 -0.0651
17404THY    CP122401   1.899   0.905   4.490 -0.2573  0.6683  0.5351
17404THY    HP122402   2.004   0.915   4.460 -0.1806  0.6710 -0.1859
17404THY    CP222403   1.905   0.797   4.600 -0.0363 -0.2467  0.4513
17404THY    HP222404   1.990   0.819   4.665 -1.1650  0.7943  1.9455
17404THY    HP322405   1.905   0.701   4.546 -4.7067  2.9395 -1.7849
17404THY    HP422406   1.810   0.802   4.655 -0.8958 -1.6341  0.0206
17404THY    CP322407   1.856   1.038   4.547 -0.1486  0.0334 -0.4400
17404THY    HP522408   1.936   1.081   4.608 -2.8637  0.7597  4.2852
17404THY    HP622409   1.778   1.024   4.623  1.6775  1.8677 -1.1761
17404THY    HP722410   1.837   1.115   4.472 -0.8990  0.0140 -0.6352
17404THY    CA322411   1.669   0.815   4.413 -0.0700  0.1324  0.6123
17404THY    HA322412   1.640   0.810   4.518 -1.0414 -0.1229  0.6473
17404THY    CA422413   1.579   0.773   4.318  0.2190  0.2848 -0.2710
17404THY    HA422414   1.484   0.731   4.349 -0.0502 -0.0834  0.0709
17404THY    CA522415   1.605   0.790   4.182 -0.2520 -0.0977 -0.3393
17404THY    CM122416   1.510   0.735   4.074  0.1259 -0.3219 -0.1824
17404THY    HM122417   1.406   0.749   4.105  0.0084  0.4524 -2.3371
17404THY    HM222418   1.513   0.629   4.046 -4.4338 -1.4376 -0.2227
17404THY    HM322419   1.523   0.784   3.977  0.6445 -0.6728 -0.9890
17404THY    CA622420   1.732   0.841   4.145 -0.8546  0.2033  0.3269
17404THY    HA622421   1.755   0.833   4.039 -1.7121 -0.0340  0.8595
17405THY      O22422   6.695   8.975   2.550 -0.4989 -0.2765 -0.1917
17405THY     HO22423   6.753   8.902   2.520  0.3070  1.8628 -0.4948
17405THY    CA122424   6.604   8.912   2.625  0.1802  0.5309  0.1463
17405THY    CA222425   6.510   8.967   2.709  0.2913  0.7711 -0.1943
17405THY    CP122426   6.505   9.117   2.719 -0.9374 -0.6841 -0.1388
17405THY    HP122427   6.557   9.168   2.638 -1.8784 -0.6063  1.0027
17405THY    CP222428   6.587   9.171   2.846  0.2199 -0.1445 -0.6143
17405THY    HP222429   6.554   9.135   2.944  1.2257  0.2256 -0.5555
17405THY    HP322430   6.589   9.280   2.842 -0.7662 -0.4598 -0.5998
17405THY    HP422431   6.692   9.139   2.841 -0.2897 -1.3747 -2.2411
17405THY    CP322432   6.364   9.185   2.715  0.0286  0.0994 -0.1066
17405THY    HP522433   6.306   9.177   2.622  0.7708 -0.3329 -0.5911
17405THY    HP622434   6.372   9.294   2.728 -0.7593  1.2330 -0.1716
17405THY    HP722435   6.293   9.150   2.790  1.0599 -0.1987 -3.0906
17405THY    CA322436   6.432   8.887   2.795  0.3735  0.1383 -0.2367
17405THY    HA322437   6.366   8.931   2.869 -0.6009  0.5319 -2.2597
17405THY    CA422438   6.443   8.748   2.788  0.1082 -0.2770  0.2730
17405THY    HA422439   6.387   8.680   2.851 -1.3598  0.5723  2.1827
17405THY    CA522440   6.530   8.692   2.705  0.5511  0.1541 -0.2428
17405THY    CM122441   6.537   8.547   2.689 -0.0721 -0.9427  0.8500
17405THY    HM122442   6.487   8.511   2.598  0.0367 -0.2236 -1.2883
17405THY    HM222443   6.491   8.494   2.773  1.1687 -0.2351  0.8610
17405THY    HM322444   6.640   8.510   2.682 -0.8275 -0.1652 -1.6005
17405THY    CA622445   6.611   8.776   2.623 -0.5117 -0.1164  0.3746
17405THY    HA622446   6.685   8.719   2.568 -0.1843  0.6403  0.0449
17406THY      O22447   3.430   0.883   3.331  0.1462 -0.2598 -1.0757
17406THY     HO22448   3.424   0.933   3.248  2.3173 -0.5122 -1.1478
17406THY    CA122449   3.357   0.951   3.433 -0.1736  0.0793 -0.1561
17406THY    CA222450   3.273   0.873   3.518 -0.4005 -0.1192 -0.4704
17406THY    CP122451   3.256   0.722   3.497 -0.0697 -0.6195  0.5896
17406THY    HP122452   3.307   0.688   3.405  1.6803  0.3321  0.5146
17406THY    CP222453   3.105   0.694   3.462  0.0622 -0.2297 -0.0479
17406THY    HP222454   3.092   0.728   3.359 -0.0138 -0.0921  0.3378
17406THY    HP322455   3.031   0.744   3.524  0.7452 -1.1845  2.2549
17406THY    HP422456   3.084   0.586   3.456 -0.3017 -0.6313  0.0430
17406THY    CP322457   3.297   0.616   3.604  0.5658 -0.1542  0.4621
17406THY    HP522458   3.212   0.602   3.672  1.0456  0.5690  1.0070
17406THY    HP622459   3.381   0.653   3.664 -0.8486  0.5544  2.7507
17406THY    HP722460   3.311   0.520   3.554 -0.7930 -1.3903  0.8668
17406THY    CA322461   3.211   0.940   3.622 -0.3207  0.0062  0.2578
17406THY    HA322462   3.164   0.879   3.699  0.2752 -0.1877 -0.4727
17406THY    CA422463   3.214   1.082   3.626  0.5969 -0.5316 -0.4391
17406THY    HA422464   3.170   1.133   3.711  1.1954 -1.1269  1.1457
17406THY    CA522465   3.292   1.156   3.536  0.7811  0.0083  0.4600
17406THY    CM122466   3.311   1.300   3.542 -0.3400 -0.8015  0.2031
17406THY    HM122467   3.219   1.359   3.553  0.5513 -0.3586  1.5681
17406THY    HM222468   3.351   1.344   3.450  2.3014  0.3174  0.2841
17406THY    HM322469   3.382   1.328   3.620 -0.2012  0.0404 -2.2439
17406THY    CA622470   3.366   1.089   3.439  0.0785 -0.4349  0.0765
17406THY    HA622471   3.431   1.144   3.371  1.9391  1.1049 -0.0912
17407THY      O22472   6.142   8.860   2.644  0.4206 -0.6271 -0.1276
17407THY     HO22473   6.228   8.903   2.630 -0.8310  0.8957  3.2497
17407THY    CA122474   6.154   8.755   2.558 -0.5819  0.6265  0.4646
17407THY    CA222475   6.052   8.660   2.527 -0.0683 -0.1774  0.1208
17407THY    CP122476   5.928   8.665   2.614 -0.1503  0.5094 -0.1867
17407THY    HP122477   5.890   8.767   2.626 -2.2131 -0.2520 -0.8212
17407THY    CP222478   5.952   8.603   2.752  0.1670  0.2963  0.1330
17407THY    HP222479   6.041   8.646   2.799 -0.4413 -0.0764  1.8799
17407THY    HP322480   5.970   8.496   2.739  0.2047  0.6262  0.0994
17407THY    HP422481   5.871   8.617   2.824 -0.5013 -0.4428  0.1192
17407THY    CP322482   5.814   8.593   2.552  0.2658 -0.0026 -0.7835
17407THY    HP522483   5.831   8.488   2.525 -2.1732  1.9155 -1.7901
17407THY    HP622484   5.796   8.641   2.456  0.3815  1.0295  1.4505
17407THY    HP722485   5.724   8.591   2.616  1.4530  1.7848 -3.8531
17407THY    CA322486   6.077   8.573   2.420 -0.4127  0.6269  1.1440
17407THY    HA322487   5.996   8.511   2.382  0.5517  0.2489  0.0618
17407THY    CA422488   6.206   8.571   2.353  0.5594 -0.4252 -0.1436
17407THY    HA422489   6.217   8.503   2.269  1.5439 -0.9412  0.6212
17407THY    CA522490   6.309   8.650   2.398 -0.2841  0.0444  0.2709
17407THY    CM122491   6.446   8.652   2.326  0.3253  0.3565  0.1168
17407THY    HM122492   6.489   8.752   2.320 -1.2268 -1.8789  0.7426
17407THY    HM222493   6.425   8.605   2.228 -0.2943  1.9099 -3.1511
17407THY    HM322494   6.506   8.575   2.376  1.2320 -0.2495  0.4012
17407THY    CA622495   6.278   8.751   2.487 -0.6900 -0.3438  0.5440
17407THY    HA622496   6.363   8.816   2.508  1.4139  0.0844 -2.1556
17408THY      O22497   5.275   0.394   5.198 -0.0533  0.3655 -0.3110
17408THY     HO22498   5.259   0.482   5.159  0.6499  0.3864 -0.1670
17408THY    CA122499   5.188   0.312   5.134 -0.0486  0.2897 -0.1872
17408THY    CA222500   5.234   0.216   5.042  0.0035  0.4292  0.4745
17408THY    CP122501   5.385   0.218   5.008  0.5694  0.3627 -0.5269
17408THY    HP122502   5.447   0.250   5.092 -2.2521  1.7383  1.8464
17408THY    CP222503   5.395   0.319   4.895  0.4696  0.2667  0.7770
17408THY    HP222504   5.502   0.338   4.881  0.9894  1.3010 -1.1319
17408THY    HP322505   5.361   0.412   4.943  2.6910  3.7504 -0.0043
17408THY    HP422506   5.326   0.308   4.811 -1.5618  2.0640 -1.4560
17408THY    CP322507   5.427   0.085   4.951 -0.4383  0.3637  0.4480
17408THY    HP522508   5.397   0.003   5.018  0.1065 -0.8354 -0.7789
17408THY    HP622509   5.537   0.079   4.947 -0.5039 -1.4380 -0.1800
17408THY    HP722510   5.394   0.063   4.849  1.1827  0.2849 -2.0893
17408THY    CA322511   5.136   0.125   4.986 -0.1469 -0.3435  0.0937
17408THY    HA322512   5.161   0.047   4.916  0.6632 -0.2472  0.2597
17408THY    CA422513   5.001   0.138   5.024  0.2578 -0.4082  0.6104
17408THY    HA422514   4.929   0.066   4.986 -0.7244  1.4141  0.5551
17408THY    CA522515   4.962   0.243   5.108 -0.1403  0.3067  1.0983
17408THY    CM122516   4.816   0.262   5.137 -0.0448  0.0810  0.0536
17408THY    HM122517   4.806   0.322   5.228 -0.7487  0.4284 -0.5741
17408THY    HM222518   4.766   0.168   5.161  0.2301 -0.3356 -0.2037
17408THY    HM322519   4.762   0.307   5.053 -1.3027 -0.5345 -2.3969
17408THY    CA622520   5.057   0.325   5.171 -0.2670  0.3085  0.0597
17408THY    HA622521   5.022   0.404   5.237  1.1828  0.5050  0.5775
17409THY      O22522   4.695   8.630   3.176 -0.1839  0.4441 -0.1606
17409THY     HO22523   4.631   8.652   3.106 -0.5188  0.4288 -1.1152
17409THY    CA122524   4.820   8.633   3.120  0.3537  0.0228  0.1831
17409THY    CA222525   4.935   8.638   3.198 -0.3496 -0.3422  0.6633
17409THY    CP122526   4.927   8.654   3.353 -0.1769  0.0146 -0.1040
17409THY    HP122527   4.822   8.679   3.372 -0.4942  0.0845 -1.3782
17409THY    CP222528   5.032   8.748   3.407  0.1505 -0.4275 -0.4888
17409THY    HP222529   5.022   8.841   3.351 -1.0023  1.2984  0.4747
17409THY    HP322530   5.133   8.713   3.384  1.6321  0.0832  3.0778
17409THY    HP422531   5.017   8.772   3.513 -0.0627 -0.6909  0.5638
17409THY    CP322532   4.946   8.520   3.423  0.5852 -0.3835  0.8097
17409THY    HP522533   4.871   8.445   3.394  2.4355  1.1261 -1.8003
17409THY    HP622534   4.933   8.539   3.530 -0.6497 -0.2528 -0.5714
17409THY    HP722535   5.046   8.481   3.400  0.7746  1.3063  0.2285
17409THY    CA322536   5.056   8.641   3.131  0.3601  0.2967 -0.1638
17409THY    HA322537   5.152   8.638   3.183  0.8704 -0.6231 -0.1682
17409THY    CA422538   5.057   8.636   2.993 -0.0646 -0.6283 -0.4601
17409THY    HA422539   5.153   8.646   2.943  0.0175 -0.0176  3.2710
17409THY    CA522540   4.939   8.642   2.915 -0.5163 -0.3195 -0.5760
17409THY    CM122541   4.940   8.645   2.761  0.3228  0.2024 -0.2684
17409THY    HM122542   4.847   8.604   2.722 -0.9667  0.9376  1.7821
17409THY    HM222543   5.028   8.581   2.744  0.3324  1.4606 -0.6254
17409THY    HM322544   4.947   8.748   2.724 -3.3209 -0.5390 -0.1507
17409THY    CA622545   4.823   8.633   2.985 -0.5128 -0.1672  0.3045
17409THY    HA622546   4.728   8.626   2.933 -0.2164 -0.5011 -3.3909
17410THY      O22547   5.207   4.233   5.996  0.3865  0.0127  0.0729
17410THY     HO22548   5.217   4.329   5.988  2.7422  1.4296  0.0260
17410THY    CA122549   5.283   4.189   5.891  0.2632  0.5774  0.4757
17410THY    CA222550   5.291   4.052   5.855 -0.1131  1.0402 -0.5154
17410THY    CP122551   5.226   3.942   5.939 -0.1790 -0.0912 -0.0724
17410THY    HP122552   5.160   3.988   6.013 -1.9188  0.2629 -2.8963
17410THY    CP222553   5.330   3.877   6.033 -0.8440  0.0530 -0.1439
17410THY    HP222554   5.399   3.819   5.970  1.5287  0.4306  2.1045
17410THY    HP322555   5.282   3.812   6.108 -1.4115 -1.4744 -1.5599
17410THY    HP422556   5.389   3.956   6.079  0.0191 -0.7658 -0.2957
17410THY    CP322557   5.154   3.849   5.841  0.4740 -0.2013 -0.1208
17410THY    HP522558   5.226   3.774   5.807 -1.1666 -2.7398 -0.6808
17410THY    HP622559   5.121   3.911   5.757 -1.8329  1.2755  0.7860
17410THY    HP722560   5.072   3.791   5.886  0.1213  0.8461  1.1523
17410THY    CA322561   5.381   4.018   5.749 -0.6079  0.7785 -0.1644
17410THY    HA322562   5.387   3.914   5.718 -2.5169  1.0225 -0.3876
17410THY    CA422563   5.438   4.115   5.667  0.4143  0.6387 -0.3813
17410THY    HA422564   5.487   4.098   5.572 -0.7903 -0.4328  1.6940
17410THY    CA522565   5.430   4.248   5.714 -0.3192 -0.9523  0.1940
17410THY    CM122566   5.471   4.359   5.622  0.5245 -0.2766  0.3317
17410THY    HM122567   5.561   4.407   5.663  0.0720  0.6911  0.3765
17410THY    HM222568   5.392   4.435   5.610  0.7270 -1.9735  0.3042
17410THY    HM322569   5.497   4.314   5.526 -1.7087 -0.7249 -0.1140
17410THY    CA622570   5.348   4.288   5.821 -0.4018  0.2407 -0.6499
17410THY    HA622571   5.331   4.392   5.846  2.3320  1.2273 -0.3541
17411THY      O22572   6.374   6.992   3.997 -0.5408  0.6316 -0.1219
17411THY     HO22573   6.428   6.990   3.917 -1.5027 -0.0472  0.1625
17411THY    CA122574   6.366   6.862   4.038 -0.0174 -0.2812 -0.3869
17411THY    CA222575   6.319   6.831   4.167  0.4370 -0.4566 -0.4720
17411THY    CP122576   6.289   6.942   4.263 -0.3648  0.5266 -0.5278
17411THY    HP122577   6.319   7.040   4.223  2.5366 -0.1627 -1.5852
17411THY    CP222578   6.349   6.932   4.407  0.3716  0.0882 -0.2052
17411THY    HP222579   6.370   6.827   4.429 -2.2918 -0.1798 -0.8451
17411THY    HP322580   6.279   6.981   4.475 -3.5008 -2.0646 -2.2988
17411THY    HP422581   6.446   6.984   4.409  0.2260 -0.4529  0.1036
17411THY    CP322582   6.139   6.950   4.276 -0.6417 -0.1437 -0.1108
17411THY    HP522583   6.091   6.949   4.177  1.4085 -1.3081 -4.2591
17411THY    HP622584   6.124   7.041   4.335  0.9057  0.9968 -0.5475
17411THY    HP722585   6.099   6.864   4.331 -0.0842 -1.0836 -1.0025
17411THY    CA322586   6.303   6.694   4.210  0.1272  0.6922 -0.1239
17411THY    HA322587   6.266   6.666   4.308 -0.3319  0.3045 -0.9202
17411THY    CA422588   6.349   6.598   4.115 -0.3665 -0.4449  0.4552
17411THY    HA422589   6.329   6.494   4.139  3.4553  1.2173 -0.0596
17411THY    CA522590   6.386   6.635   3.986 -0.3388 -0.3198 -0.0062
17411THY    CM122591   6.406   6.525   3.886  0.0398 -0.6160 -0.0166
17411THY    HM122592   6.513   6.508   3.868  0.1716 -0.0104  0.1249
17411THY    HM222593   6.368   6.556   3.788  0.5312 -0.2643  1.8140
17411THY    HM322594   6.353   6.434   3.917 -0.7616 -4.4179 -0.9910
17411THY    CA622595   6.395   6.764   3.950  0.0946  0.2213 -0.6774
17411THY    HA622596   6.425   6.790   3.848  3.4180  1.2526 -0.0203
17412THY      O22597   4.733   6.769   4.602 -0.4476  0.1245  0.0268
17412THY     HO22598   4.770   6.833   4.666 -0.1017  2.3444 -2.2278
17412THY    CA122599   4.828   6.671   4.593  0.2793 -0.4178  0.1535
17412THY    CA222600   4.793   6.542   4.572  0.4598  0.0452 -0.2291
17412THY    CP122601   4.647   6.501   4.559  1.4243 -0.8206  0.3067
17412THY    HP122602   4.590   6.586   4.598 -0.2202 -1.5470 -0.4156
17412THY    CP222603   4.613   6.369   4.627 -0.0095  0.5530 -0.6837
17412THY    HP222604   4.504   6.363   4.631 -0.0965  0.5637  0.5843
17412THY    HP322605   4.649   6.374   4.730  0.7764  0.2821 -0.5668
17412THY    HP422606   4.666   6.282   4.586  3.4296  1.7985  0.6676
17412THY    CP322607   4.616   6.502   4.407  0.0681  0.1286 -0.3067
17412THY    HP522608   4.687   6.436   4.356 -0.4055 -0.6285 -0.2475
17412THY    HP622609   4.629   6.601   4.361  1.8104 -0.5156 -0.7936
17412THY    HP722610   4.513   6.466   4.396 -1.5064  4.2368  2.1922
17412THY    CA322611   4.899   6.444   4.574  0.0371 -0.4736  0.0242
17412THY    HA322612   4.880   6.338   4.557  0.2012 -0.3071 -0.0323
17412THY    CA422613   5.035   6.477   4.598  0.5818 -0.1422  0.7474
17412THY    HA422614   5.118   6.407   4.591  0.7645 -0.6945  1.0085
17412THY    CA522615   5.065   6.615   4.616  0.4924 -0.2899  0.4456
17412THY    CM122616   5.204   6.668   4.632  0.5047  0.5391  0.1109
17412THY    HM122617   5.216   6.766   4.585  1.2580  0.3575 -0.0620
17412THY    HM222618   5.270   6.600   4.576 -2.2313  0.0401 -2.3163
17412THY    HM322619   5.243   6.678   4.734 -0.9186  0.8749  3.7138
17412THY    CA622620   4.965   6.708   4.605  0.2588 -0.4440  0.7981
17412THY    HA622621   4.998   6.811   4.619  3.1427  2.0109 -0.3211
17413THY      O22622   2.211   8.422   2.364  0.0550  0.0241 -0.7254
17413THY     HO22623   2.216   8.371   2.282 -0.1421  0.7898 -2.0215
17413THY    CA122624   2.332   8.476   2.390  0.0082 -0.3600  0.9476
17413THY    CA222625   2.368   8.514   2.519  0.8546  0.2805 -0.0368
17413THY    CP122626   2.265   8.488   2.632 -0.2538 -0.4834 -0.0598
17413THY    HP122627   2.166   8.457   2.594  0.4949 -0.8102 -2.2573
17413THY    CP222628   2.260   8.607   2.737  0.3736 -0.1194  0.2652
17413THY    HP222629   2.340   8.601   2.812 -1.4169  1.9448  0.7645
17413THY    HP322630   2.165   8.603   2.791 -1.5180 -3.2019  0.1133
17413THY    HP422631   2.269   8.701   2.682 -0.1512 -0.4925  0.0998
17413THY    CP322632   2.303   8.371   2.726 -0.4365  0.1380  0.3059
17413THY    HP522633   2.286   8.272   2.683  1.8957  1.1982 -0.6260
17413THY    HP622634   2.242   8.358   2.816 -0.9237  0.1129  2.0869
17413THY    HP722635   2.410   8.368   2.753 -0.5041  0.3306 -1.7677
17413THY    CA322636   2.492   8.585   2.534  0.1338  0.0228  0.1284
17413THY    HA322637   2.530   8.617   2.631  2.4858 -0.4662 -0.9749
17413THY    CA422638   2.579   8.594   2.423 -0.3517  0.3690  0.4162
17413THY    HA422639   2.683   8.619   2.442 -0.1513  1.8203 -1.3641
17413THY    CA522640   2.545   8.542   2.299 -0.0476 -0.1994 -0.0999
17413THY    CM122641   2.653   8.535   2.189 -1.0043 -0.1173  0.5889
17413THY    HM122642   2.670   8.639   2.159  1.5959  0.6964  0.4588
17413THY    HM222643   2.619   8.458   2.118 -3.0548  1.3142  0.0904
17413THY    HM322644   2.751   8.509   2.230 -0.5847  0.5447  2.9665
17413THY    CA622645   2.418   8.485   2.276  0.0720  0.0729 -0.6384
17413THY    HA622646   2.386   8.444   2.181 -0.7865  0.1315 -0.1267
17414THY      O22647   3.628   7.018   4.994  0.4584 -0.2833  0.1374
17414THY     HO22648   3.555   6.976   4.945 -0.3492 -0.4107  1.6125
17414THY    CA122649   3.741   6.951   4.986 -0.5097 -0.4957 -0.8116
17414THY    CA222650   3.851   6.991   5.056 -0.3168 -0.7214  0.0729
17414THY    CP122651   3.840   7.097   5.161 -0.2594 -0.3654 -0.6861
17414THY    HP122652   3.742   7.146   5.157  0.8314 -1.7656  1.5175
17414THY    CP222653   3.930   7.218   5.126  0.8980  0.2710 -0.5265
17414THY    HP222654   3.926   7.243   5.019  0.9319  0.3299 -0.2686
17414THY    HP322655   4.038   7.215   5.145  0.7069  1.6622  0.3999
17414THY    HP422656   3.883   7.308   5.168 -0.4329 -1.6324 -0.2602
17414THY    CP322657   3.867   7.046   5.307 -0.2066 -0.7954 -0.0180
17414THY    HP522658   3.970   7.012   5.323 -0.0240 -1.7392  0.0590
17414THY    HP622659   3.796   6.962   5.314  0.0545  0.8070 -0.1488
17414THY    HP722660   3.826   7.115   5.381  1.3066  0.5222 -0.4615
17414THY    CA322661   3.967   6.922   5.046  0.4272 -0.3339  0.3717
17414THY    HA322662   4.053   6.953   5.105  1.6643 -1.3479 -0.9892
17414THY    CA422663   3.972   6.812   4.963  0.0107  0.2038 -0.5631
17414THY    HA422664   4.066   6.756   4.960  0.5204 -2.2990  0.2929
17414THY    CA522665   3.865   6.778   4.889 -0.2056  0.5423  0.9978
17414THY    CM122666   3.878   6.644   4.816  0.2807  0.2687  0.1805
17414THY    HM122667   3.957   6.578   4.855 -1.0856  1.7238 -0.6721
17414THY    HM222668   3.899   6.664   4.711 -0.4715  0.3912  1.7423
17414THY    HM322669   3.780   6.594   4.820  1.1108  1.7812 -1.4400
17414THY    CA622670   3.744   6.840   4.905 -0.0038 -0.0076 -0.4444
17414THY    HA622671   3.656   6.811   4.849  0.0876  0.2741 -1.2948
17415THY      O22672   2.060   2.119   4.590  0.6629 -0.3504 -0.1936
17415THY     HO22673   2.033   2.058   4.520  0.7069 -0.8493  0.3571
17415THY    CA122674   2.125   2.224   4.541 -0.7859  0.4393  0.5921
17415THY    CA222675   2.223   2.288   4.615  0.1720  0.0014 -0.0194
17415THY    CP122676   2.246   2.276   4.769  0.1936 -0.6371  0.1428
17415THY    HP122677   2.187   2.195   4.814  0.0438  1.3772  1.3021
17415THY    CP222678   2.195   2.388   4.859 -1.1832 -0.1923 -0.0025
17415THY    HP222679   2.234   2.487   4.832 -0.8572 -2.1829 -0.6275
17415THY    HP322680   2.217   2.366   4.964  0.5972 -0.7685 -1.2135
17415THY    HP422681   2.088   2.409   4.847 -0.4874 -3.7727  2.4549
17415THY    CP322682   2.400   2.254   4.803  0.3879 -0.4733 -0.2674
17415THY    HP522683   2.447   2.187   4.730 -0.3521 -1.1369 -0.0758
17415THY    HP622684   2.414   2.216   4.905  0.6269 -0.6119 -0.5497
17415THY    HP722685   2.458   2.347   4.795  0.8368  0.9214 -0.4029
17415THY    CA322686   2.295   2.390   4.550 -0.4813  0.7870  0.5510
17415THY    HA322687   2.376   2.440   4.604  2.3271 -2.8832  0.3537
17415THY    CA422688   2.259   2.429   4.414 -0.5512 -0.3379  0.1940
17415THY    HA422689   2.297   2.519   4.367 -2.7827  2.2706  2.7105
17415THY    CA522690   2.166   2.353   4.347  0.1513 -0.0841  0.1064
17415THY    CM122691   2.115   2.396   4.210 -0.1062  0.3116 -0.4524
17415THY    HM122692   2.052   2.315   4.170 -0.3239  0.4889 -0.3736
17415THY    HM222693   2.197   2.418   4.140  2.1913  1.9414 -3.1878
17415THY    HM322694   2.045   2.480   4.219 -0.8143  1.8819 -1.1697
17415THY    CA622695   2.099   2.253   4.410  0.0450  0.1587 -0.2353
17415THY    HA622696   2.016   2.200   4.364 -0.6618  0.4504  0.5946
17416THY      O22697   2.548   5.260   5.788  0.0563 -0.1598  0.1006
17416THY     HO22698   2.482   5.189   5.796 -1.2361 -0.1234  1.2517
17416THY    CA122699   2.473   5.373   5.776 -0.8898 -0.8117 -0.2508
17416THY    CA222700   2.542   5.492   5.794 -0.3189  0.9451 -0.0930
17416THY    CP122701   2.694   5.490   5.807  0.2895 -0.5398  0.9184
17416THY    HP122702   2.731   5.387   5.822 -0.9208 -0.2093  0.5187
17416THY    CP222703   2.738   5.573   5.933  0.2681  0.0233 -0.0818
17416THY    HP222704   2.678   5.551   6.022 -1.7273 -1.0485  0.6993
17416THY    HP322705   2.737   5.679   5.904  1.0642  1.4202  0.3316
17416THY    HP422706   2.842   5.551   5.958  0.5138  0.3339  1.3296
17416THY    CP322707   2.769   5.539   5.682  0.4210  0.2067 -0.4298
17416THY    HP522708   2.873   5.570   5.697  0.2796 -0.6321  0.4832
17416THY    HP622709   2.723   5.632   5.647  0.1231 -2.4156 -1.4703
17416THY    HP722710   2.761   5.469   5.598  0.9127  0.3049 -0.6013
17416THY    CA322711   2.469   5.609   5.775  0.1559 -0.5078  0.0545
17416THY    HA322712   2.519   5.705   5.779 -1.7815 -2.5302  1.2505
17416THY    CA422713   2.329   5.597   5.758  0.1173 -0.3119  0.0933
17416THY    HA422714   2.277   5.692   5.759  0.9855  0.3685  0.5749
17416THY    CA522715   2.261   5.476   5.753 -0.0300 -0.5380  0.3595
17416THY    CM122716   2.112   5.472   5.758 -0.4633 -0.4493 -0.2273
17416THY    HM122717   2.072   5.569   5.727  0.4566  0.1061  0.3461
17416THY    HM222718   2.080   5.437   5.857  1.1778 -0.5868 -2.3235
17416THY    HM322719   2.075   5.393   5.692 -0.9686  0.8088 -1.0862
17416THY    CA622720   2.336   5.361   5.762  0.1530 -1.2237  0.1883
17416THY    HA622721   2.290   5.263   5.754 -0.9368 -1.2249  0.6783
17417THY      O22722   1.972   8.274   2.599  0.1277  0.3929 -0.4227
17417THY     HO22723   1.940   8.333   2.528  3.3128 -0.1630  0.8451
17417THY    CA122724   1.952   8.331   2.716  0.0625  0.1878  0.8498
17417THY    CA222725   1.949   8.254   2.835  0.1352 -0.2014  0.5371
17417THY    CP122726   1.998   8.115   2.836  0.4308  0.0210  0.3280
17417THY    HP122727   2.074   8.094   2.760  1.5552  2.2187 -5.1323
17417THY    CP222728   1.880   8.023   2.802 -0.1365  0.1230 -0.1875
17417THY    HP222729   1.837   8.048   2.704  0.5909 -0.5789 -1.5770
17417THY    HP322730   1.798   8.046   2.872 -0.5618 -1.0344  2.1325
17417THY    HP422731   1.910   7.918   2.806  0.4044  0.6424 -0.0169
17417THY    CP322732   2.054   8.066   2.970  0.6182  0.2549  0.1933
17417THY    HP522733   2.154   8.107   2.991  0.4684  1.3840 -0.0122
17417THY    HP622734   2.062   7.957   2.957  1.3854  0.6951  0.1872
17417THY    HP722735   1.994   8.085   3.059  2.0192  1.2448  0.1017
17417THY    CA322736   1.907   8.318   2.956 -1.1720  0.5587  0.3846
17417THY    HA322737   1.907   8.267   3.052 -2.7721  1.4430  1.9778
17417THY    CA422738   1.883   8.450   2.954 -0.5696 -0.1307 -1.2352
17417THY    HA422739   1.849   8.505   3.041 -1.1847 -1.6590  0.9868
17417THY    CA522740   1.884   8.527   2.838 -1.0370  0.3086 -0.3096
17417THY    CM122741   1.853   8.676   2.837 -0.2129 -0.1301 -0.1282
17417THY    HM122742   1.884   8.731   2.747  0.9134  0.8134  0.8221
17417THY    HM222743   1.915   8.727   2.912 -0.2394 -0.5534  0.5307
17417THY    HM322744   1.749   8.680   2.869  0.1113  1.0368 -0.7593
17417THY    CA622745   1.916   8.465   2.719  0.4092 -0.3581  0.1066
17417THY    HA622746   1.922   8.519   2.625  0.3977 -1.0978 -1.1312
17418THY      O22747   4.892   4.808   6.681  0.0900  0.3925 -0.2669
17418THY     HO22748   4.943   4.783   6.602 -0.6374  0.4518 -2.1740
17418THY    CA122749   4.845   4.695   6.725 -0.8958  0.2894  0.3358
17418THY    CA222750   4.845   4.662   6.863 -0.4170  0.7598 -0.4542
17418THY    CP122751   4.908   4.761   6.961 -0.4155 -0.3138  0.1900
17418THY    HP122752   4.893   4.868   6.940  1.3002  0.1783  0.5589
17418THY    CP222753   5.061   4.746   6.951 -0.0856  0.2069 -0.2097
17418THY    HP222754   5.116   4.827   7.002 -0.8237 -0.6764  0.8860
17418THY    HP322755   5.099   4.739   6.848  3.2245  1.3848 -1.6308
17418THY    HP422756   5.090   4.650   6.994  0.3574  0.3555 -0.0149
17418THY    CP322757   4.854   4.745   7.106 -0.6399  0.1464  0.0028
17418THY    HP522758   4.745   4.746   7.118 -0.6524  0.0109  0.4150
17418THY    HP622759   4.893   4.820   7.175  0.4998  2.1225 -2.2571
17418THY    HP722760   4.877   4.650   7.156  1.2682 -0.3287  0.1779
17418THY    CA322761   4.811   4.528   6.895  0.5666  0.2096 -0.4630
17418THY    HA322762   4.811   4.494   6.998 -1.7937  0.5070  0.2651
17418THY    CA422763   4.771   4.433   6.790  0.1296 -0.3694 -0.4607
17418THY    HA422764   4.762   4.328   6.814 -0.8099  3.3019  0.3363
17418THY    CA522765   4.776   4.472   6.659 -0.4270  0.1400  0.1739
17418THY    CM122766   4.739   4.382   6.546  0.4613  0.2788  0.6701
17418THY    HM122767   4.826   4.381   6.479  0.4813  0.3085 -0.3064
17418THY    HM222768   4.655   4.424   6.490 -0.3457  0.4990 -0.6215
17418THY    HM322769   4.722   4.277   6.573  2.1362 -0.7201  0.0961
17418THY    CA622770   4.809   4.602   6.633 -0.0798  0.3363 -0.1549
17418THY    HA622771   4.818   4.630   6.529 -1.6215  0.4913  1.0137
17419THY      O22772   4.661   7.344   3.410  0.0923 -0.6716  0.0876
17419THY     HO22773   4.598   7.393   3.354 -1.3415  1.0039  0.2928
17419THY    CA122774   4.590   7.305   3.522  0.2703 -0.4101  0.6407
17419THY    CA222775   4.651   7.264   3.644 -0.0494  0.1135  0.4770
17419THY    CP122776   4.798   7.294   3.674  0.0065 -0.0518 -0.5691
17419THY    HP122777   4.852   7.340   3.591 -0.3187  0.4776  0.8531
17419THY    CP222778   4.879   7.164   3.718  0.2823  0.3235 -0.2251
17419THY    HP222779   4.981   7.192   3.744  0.5651 -1.9956  1.2094
17419THY    HP322780   4.899   7.105   3.628  2.0535 -0.1384  0.9979
17419THY    HP422781   4.816   7.098   3.779 -2.3678 -2.7919 -0.8713
17419THY    CP322782   4.811   7.409   3.785  0.1354  0.1098  0.0469
17419THY    HP522783   4.915   7.414   3.820 -0.2480  1.5074 -1.1024
17419THY    HP622784   4.740   7.375   3.862  1.4880  0.8500 -1.2378
17419THY    HP722785   4.787   7.507   3.741  3.0977  0.1777  0.9163
17419THY    CA322786   4.569   7.222   3.754  0.3259  0.7510  0.2426
17419THY    HA322787   4.610   7.207   3.853 -2.4105  2.2146  1.7881
17419THY    CA422788   4.431   7.205   3.738 -0.5409  0.6112 -0.7098
17419THY    HA422789   4.370   7.180   3.824 -1.0933  0.7456  0.9211
17419THY    CA522790   4.373   7.257   3.618  0.3194 -0.2047  0.3754
17419THY    CM122791   4.218   7.236   3.590 -0.3253 -0.7916 -0.2151
17419THY    HM122792   4.177   7.320   3.532 -1.2087 -0.2157 -0.2367
17419THY    HM222793   4.153   7.218   3.676 -1.3653 -1.7910 -1.4029
17419THY    HM322794   4.206   7.154   3.519  0.2079 -1.3231  0.1523
17419THY    CA622795   4.453   7.302   3.513 -0.0650 -0.0708 -0.2247
17419THY    HA622796   4.412   7.326   3.415  2.1595 -0.9040  0.4499
17420THY      O22797   0.308   1.822   6.090 -0.7348  0.2778  0.1901
17420THY     HO22798   0.257   1.866   6.021 -0.8708  0.1994 -0.0860
17420THY    CA122799   0.332   1.903   6.200 -0.1998 -0.4731  0.8518
17420THY    CA222800   0.410   1.857   6.313 -0.5381  0.8616  0.2430
17420THY    CP122801   0.484   1.723   6.301 -0.4736 -0.1729 -0.5306
17420THY    HP122802   0.484   1.677   6.202 -1.1039 -0.2306 -0.4138
17420THY    CP222803   0.410   1.622   6.394  0.1654 -0.4677  0.8146
17420THY    HP222804   0.304   1.623   6.366 -0.2244  0.9186  0.3894
17420THY    HP322805   0.413   1.646   6.501 -2.3193 -0.2090  0.2425
17420THY    HP422806   0.445   1.519   6.384  0.1886  2.2138  0.4941
17420THY    CP322807   0.629   1.726   6.339  0.1472  0.5592  1.6373
17420THY    HP522808   0.636   1.750   6.446 -1.4209  0.9379  0.6227
17420THY    HP622809   0.684   1.799   6.280  0.5691  0.4599  1.2461
17420THY    HP722810   0.672   1.626   6.323 -0.2947 -1.4040  1.7391
17420THY    CA322811   0.419   1.936   6.422 -0.7369 -0.0638 -0.2833
17420THY    HA322812   0.486   1.906   6.502 -2.8315  2.1687  0.6570
17420THY    CA422813   0.374   2.070   6.415  0.8108  0.7388  0.2047
17420THY    HA422814   0.401   2.137   6.497  1.1813 -0.6786  1.8442
17420THY    CA522815   0.299   2.114   6.301  0.3400 -0.5177 -0.1078
17420THY    CM122816   0.248   2.254   6.308 -1.1275  1.2234 -0.2149
17420THY    HM122817   0.316   2.325   6.259  0.6980 -0.7446 -3.1056
17420THY    HM222818   0.219   2.275   6.412 -1.8578  0.5778  2.2896
17420THY    HM322819   0.156   2.257   6.248 -0.3992 -0.0378 -1.8342
17420THY    CA622820   0.283   2.031   6.194  0.0838 -0.0299 -0.0524
17420THY    HA622821   0.226   2.064   6.108  1.0170 -0.2151  1.1479
17421THY      O22822   1.474   4.106   4.844 -0.3897 -0.4539  0.2926
17421THY     HO22823   1.531   4.135   4.770 -1.3035 -1.4802 -0.4357
17421THY    CA122824   1.355   4.140   4.796  0.0692 -0.5974  0.0892
17421THY    CA222825   1.239   4.099   4.860  0.2834  0.3733  0.6452
17421THY    CP122826   1.244   4.015   4.981  0.2218  0.3691 -0.5175
17421THY    HP122827   1.331   3.949   4.989 -0.1945 -1.6722 -1.3923
17421THY    CP222828   1.135   3.903   4.976 -0.1744  0.2186 -0.3555
17421THY    HP222829   1.035   3.944   4.996 -1.1300  1.5203 -3.0794
17421THY    HP322830   1.161   3.831   5.055  0.6048  0.6913  0.4160
17421THY    HP422831   1.136   3.859   4.876 -2.9514 -0.8692  1.7774
17421THY    CP322832   1.218   4.094   5.109 -0.0728  0.0821 -0.1281
17421THY    HP522833   1.292   4.172   5.126 -0.9921  2.8068  0.2603
17421THY    HP622834   1.232   4.029   5.196 -2.4285 -0.4158 -1.4212
17421THY    HP722835   1.119   4.141   5.103  0.3777 -4.1372  0.6695
17421THY    CA322836   1.114   4.147   4.815 -0.2113  0.0603  0.5713
17421THY    HA322837   1.025   4.132   4.875  0.2639  0.6504  0.0473
17421THY    CA422838   1.120   4.239   4.717  0.4805  0.4406 -0.5002
17421THY    HA422839   1.031   4.292   4.685  1.3246  0.4033  0.9484
17421THY    CA522840   1.234   4.282   4.651  0.6931 -0.5263  0.0942
17421THY    CM122841   1.227   4.387   4.547 -1.0155  0.4510 -0.0047
17421THY    HM122842   1.225   4.339   4.448  3.1065  1.3046 -2.4070
17421THY    HM222843   1.308   4.461   4.555 -0.5345 -0.5519 -0.3983
17421THY    HM322844   1.138   4.450   4.557  0.6953  2.0030  2.3457
17421THY    CA622845   1.350   4.225   4.686 -0.1053 -0.0236 -0.5801
17421THY    HA622846   1.441   4.261   4.641 -0.6696  1.8901  3.9486
17422THY      O22847   9.209   3.319   3.162  0.1580  0.0779  0.3473
17422THY     HO22848   9.153   3.398   3.153 -1.0672 -0.0189 -0.4935
17422THY    CA122849   9.121   3.216   3.151 -0.1983  0.4021 -0.7519
17422THY    CA222850   9.171   3.091   3.105  0.0853  0.5380 -0.0512
17422THY    CP122851   9.328   3.074   3.075 -0.4412 -0.5129  0.3410
17422THY    HP122852   9.365   3.165   3.027  2.1006 -0.2247 -0.4577
17422THY    CP222853   9.356   2.959   2.970  0.2276 -0.3569 -0.7125
17422THY    HP222854   9.334   2.866   3.025 -1.4571  2.0499  0.9704
17422THY    HP322855   9.464   2.959   2.953  0.5745  1.5928  0.0688
17422THY    HP422856   9.297   2.956   2.878 -0.3732  0.0271 -2.2829
17422THY    CP322857   9.424   3.060   3.203  0.0806  0.0671 -0.7040
17422THY    HP522858   9.528   3.064   3.169  0.1038  0.1220  2.7104
17422THY    HP622859   9.395   2.983   3.275 -2.7521 -0.6238 -0.4226
17422THY    HP722860   9.419   3.152   3.263  1.2325  1.8710 -1.7751
17422THY    CA322861   9.083   2.979   3.107 -0.0116  0.2333  0.2247
17422THY    HA322862   9.123   2.882   3.079 -1.3341  0.5322 -0.4266
17422THY    CA422863   8.954   2.996   3.159  0.4429 -0.0924 -0.2989
17422THY    HA422864   8.887   2.910   3.163 -2.0634  0.8133  1.5614
17422THY    CA522865   8.900   3.124   3.177  0.0420 -0.7133  0.0570
17422THY    CM122866   8.753   3.139   3.203  0.9506 -0.0029  0.3351
17422THY    HM122867   8.693   3.128   3.112 -1.6049  1.7500 -1.3997
17422THY    HM222868   8.713   3.229   3.252  0.7512  0.4223  0.0154
17422THY    HM322869   8.736   3.061   3.278 -0.1149  1.5908  1.9935
17422THY    CA622870   8.983   3.236   3.171  0.6013  1.0562 -0.3360
17422THY    HA622871   8.936   3.333   3.185  0.4166 -1.2491 -0.0366
17423THY      O22872   3.030   2.851   5.935 -0.5055 -0.4239 -0.2793
17423THY     HO22873   2.999   2.773   5.983 -3.4436 -0.9750  0.4291
17423THY    CA122874   3.143   2.899   6.003  0.7683  0.0451  0.2648
17423THY    CA222875   3.191   3.033   5.981  0.0708  0.1321  0.4941
17423THY    CP122876   3.109   3.123   5.893 -0.0481 -0.3144  0.0220
17423THY    HP122877   3.006   3.088   5.877 -0.5870 -0.2706  1.5104
17423THY    CP222878   3.174   3.121   5.753  0.3795  0.1959 -0.4790
17423THY    HP222879   3.107   3.174   5.685 -0.6493  0.0417 -1.9403
17423THY    HP322880   3.195   3.020   5.717  0.1808  0.4884 -0.6271
17423THY    HP422881   3.271   3.172   5.750  0.0325  0.3896  0.2108
17423THY    CP322882   3.102   3.275   5.939 -0.1394  0.1302  0.2844
17423THY    HP522883   3.039   3.327   5.865  3.4896 -1.8245  2.2810
17423THY    HP622884   3.204   3.312   5.953  0.6903 -2.4538 -0.7697
17423THY    HP722885   3.062   3.286   6.040 -1.4438 -0.4598  1.2641
17423THY    CA322886   3.316   3.061   6.035  0.1201 -0.0301  0.0399
17423THY    HA322887   3.360   3.158   6.012 -0.7566 -0.3131  0.3790
17423THY    CA422888   3.384   2.968   6.116  0.0146  0.2645  0.1146
17423THY    HA422889   3.476   2.989   6.168  1.1009 -0.8250 -1.6901
17423THY    CA522890   3.319   2.842   6.146  0.1999  0.0714 -0.2925
17423THY    CM122891   3.392   2.741   6.231 -0.0531  0.1899 -0.0958
17423THY    HM122892   3.331   2.718   6.319 -1.1161 -0.4102  0.3010
17423THY    HM222893   3.493   2.777   6.250 -0.2184  1.9617 -0.4891
17423THY    HM322894   3.392   2.648   6.172  0.0155 -2.2967  1.3748
17423THY    CA622895   3.203   2.813   6.087 -0.9777  0.7461  0.9869
17423THY    HA622896   3.177   2.708   6.096 -0.6673  1.5475  0.9723
17424THY      O22897   5.100   6.355   6.626 -0.0787  0.0375 -0.0505
17424THY     HO22898   5.030   6.331   6.689 -0.7653 -1.0017 -0.8862
17424THY    CA122899   5.022   6.378   6.509 -0.5395  0.3829 -0.4920
17424THY    CA222900   5.088   6.390   6.383 -0.6548  0.2730 -0.0002
17424THY    CP122901   5.243   6.378   6.376 -0.0484 -0.1534  0.5526
17424THY    HP122902   5.276   6.324   6.465  0.7473 -0.5087  0.4277
17424THY    CP222903   5.310   6.510   6.366  0.2650 -0.9513  0.2658
17424THY    HP222904   5.280   6.571   6.451  0.4625 -0.8618  0.2388
17424THY    HP322905   5.267   6.571   6.286  0.4754 -1.1010  0.2177
17424THY    HP422906   5.419   6.517   6.363  0.2213 -1.7806  0.7045
17424THY    CP322907   5.280   6.285   6.263 -0.5494 -0.4192  0.8732
17424THY    HP522908   5.263   6.331   6.165  1.9503 -0.9573  0.8065
17424THY    HP622909   5.223   6.191   6.269 -2.5031 -1.0015  1.9674
17424THY    HP722910   5.385   6.254   6.265 -0.8625  0.3948 -0.2404
17424THY    CA322911   5.014   6.403   6.265 -0.0397 -0.0713 -0.3550
17424THY    HA322912   5.057   6.422   6.167 -1.6305 -0.4197  1.8061
17424THY    CA422913   4.880   6.397   6.276 -0.3175  0.1491  0.1930
17424THY    HA422914   4.823   6.405   6.183 -0.4943 -0.3287 -4.2870
17424THY    CA522915   4.815   6.378   6.396 -0.0373  0.2143  0.0226
17424THY    CM122916   4.662   6.356   6.400 -0.1709 -0.0575  0.6602
17424THY    HM122917   4.634   6.275   6.332  1.1985 -0.8917  0.8486
17424THY    HM222918   4.601   6.444   6.382 -0.8058  0.6676  0.3815
17424THY    HM322919   4.641   6.338   6.507  0.2466 -0.3666 -2.1887
17424THY    CA622920   4.886   6.359   6.514  0.3811  0.1372 -0.5318
17424THY    HA622921   4.833   6.325   6.603 -3.3217 -1.8252 -0.3817
17425THY      O22922   8.595   8.268   3.613 -0.2509  1.0790 -0.4360
17425THY     HO22923   8.582   8.360   3.642 -3.0748 -4.4807  1.4069
17425THY    CA122924   8.505   8.252   3.509 -0.0796 -0.3237 -0.3184
17425THY    CA222925   8.472   8.123   3.466  0.0119  0.6095 -1.4346
17425THY    CP122926   8.535   8.008   3.538 -0.1957  0.0430  0.7781
17425THY    HP122927   8.622   8.036   3.599 -0.7603  1.6038 -0.6861
17425THY    CP222928   8.581   7.898   3.429 -0.6721 -0.0970 -0.0453
17425THY    HP222929   8.504   7.878   3.354  0.0203 -0.9498  0.4127
17425THY    HP322930   8.622   7.810   3.480 -1.9616  1.5933  0.2600
17425THY    HP422931   8.671   7.936   3.380 -1.0263 -3.2473 -2.8724
17425THY    CP322932   8.432   7.945   3.627  0.6597  0.5440 -0.4404
17425THY    HP522933   8.330   7.970   3.596  0.8861  0.3589  0.2738
17425THY    HP622934   8.442   7.991   3.726 -0.1781  1.0120 -1.2264
17425THY    HP722935   8.439   7.836   3.634  1.7703 -0.0864 -0.4211
17425THY    CA322936   8.370   8.116   3.372 -0.2764  0.3255 -0.3613
17425THY    HA322937   8.342   8.020   3.329  2.8902  0.3758 -1.4115
17425THY    CA422938   8.324   8.227   3.311  0.0948  0.6198 -0.9110
17425THY    HA422939   8.245   8.214   3.238  1.4734 -0.7908 -1.6183
17425THY    CA522940   8.366   8.356   3.341 -0.8398  0.2500 -0.2685
17425THY    CM122941   8.308   8.471   3.268  0.0589  0.3200  0.2259
17425THY    HM122942   8.300   8.554   3.338  0.5819 -0.6993  1.1534
17425THY    HM222943   8.208   8.451   3.227  0.4723 -0.6968  0.1460
17425THY    HM322944   8.375   8.498   3.186 -0.0403 -0.1198 -0.7946
17425THY    CA622945   8.454   8.373   3.449  0.2879 -1.4638  0.1682
17425THY    HA622946   8.496   8.464   3.490  0.4121  1.2001 -0.9884
17426THY      O22947   0.947   2.327   3.429  0.5310  0.2649 -0.3918
17426THY     HO22948   0.896   2.246   3.447 -0.8794 -0.6417  0.2418
17426THY    CA122949   0.931   2.413   3.539  0.0391  0.1460 -0.0906
17426THY    CA222950   0.948   2.555   3.539 -0.9350  0.3816 -0.6394
17426THY    CP122951   0.984   2.622   3.402  0.0654  0.2083  0.0754
17426THY    HP122952   0.932   2.574   3.318  0.6249 -0.8983  1.3521
17426THY    CP222953   1.125   2.594   3.363 -0.1106  0.8315 -0.1602
17426THY    HP222954   1.195   2.625   3.441  0.6676 -0.0634  0.3917
17426THY    HP322955   1.160   2.660   3.283 -1.4431 -0.3158 -0.8010
17426THY    HP422956   1.149   2.489   3.344  2.9908  0.1796  0.5579
17426THY    CP322957   0.948   2.774   3.395 -0.6251 -0.4657  0.0378
17426THY    HP522958   0.954   2.812   3.292  0.1649 -0.0002  1.2407
17426THY    HP622959   1.026   2.828   3.451  2.7328 -1.7203 -3.0684
17426THY    HP722960   0.847   2.800   3.426  0.0110  3.3423 -1.4357
17426THY    CA322961   0.955   2.629   3.659  0.1771  0.0664  0.5643
17426THY    HA322962   0.995   2.730   3.660  1.4039  2.7701  0.1600
17426THY    CA422963   0.929   2.561   3.781  0.3460  0.1561 -0.3211
17426THY    HA422964   0.935   2.611   3.877  0.8267  0.1282 -0.3269
17426THY    CA522965   0.902   2.422   3.781  0.1739  0.4314 -0.4502
17426THY    CM122966   0.883   2.359   3.915 -0.0949 -0.3091  0.2122
17426THY    HM122967   0.787   2.309   3.931  0.2414 -0.6626 -0.5633
17426THY    HM222968   0.894   2.431   3.996 -0.8740  0.9737 -1.0643
17426THY    HM322969   0.957   2.281   3.936 -2.2496  0.4756 -1.7646
17426THY    CA622970   0.911   2.350   3.662 -0.0315  0.5509  0.8359
17426THY    HA622971   0.918   2.242   3.667 -0.3290 -1.2706  0.7027
17427THY      O22972   8.156   6.950   3.178  0.0983 -0.4483  0.6638
17427THY     HO22973   8.105   6.975   3.100  0.9192 -1.1532  0.1895
17427THY    CA122974   8.108   6.831   3.219 -1.2373 -0.2651  0.6328
17427THY    CA222975   8.144   6.779   3.343 -0.4038  0.2401 -0.0122
17427THY    CP122976   8.263   6.853   3.418  0.8471  0.2665 -0.1382
17427THY    HP122977   8.320   6.904   3.340 -0.7070 -1.1836 -0.5311
17427THY    CP222978   8.366   6.766   3.473  0.3081 -0.1641  1.0463
17427THY    HP222979   8.433   6.729   3.395  0.6842  0.8545 -0.5295
17427THY    HP322980   8.322   6.681   3.527  0.2442  0.1310  1.2662
17427THY    HP422981   8.421   6.809   3.558  0.3879 -0.4432  1.4986
17427THY    CP322982   8.202   6.950   3.523 -0.1747 -0.1033  0.5759
17427THY    HP522983   8.282   7.012   3.566 -1.1224  0.7365  1.2473
17427THY    HP622984   8.132   6.907   3.595 -0.1436 -0.6065 -0.3305
17427THY    HP722985   8.131   7.018   3.474 -2.1922  1.3038 -0.4207
17427THY    CA322986   8.089   6.664   3.387 -0.0061  0.1587  0.2330
17427THY    HA322987   8.123   6.624   3.482  1.4486  1.2998  3.7942
17427THY    CA422988   7.980   6.607   3.317 -0.9662  0.3256  0.4657
17427THY    HA422989   7.938   6.516   3.360  1.3213  0.8816 -0.4095
17427THY    CA522990   7.940   6.658   3.196 -0.6883 -0.1572 -0.8405
17427THY    CM122991   7.840   6.594   3.111  0.7814  0.3336  0.0907
17427THY    HM122992   7.773   6.665   3.062  1.0227  0.5529  0.4718
17427THY    HM222993   7.786   6.522   3.173  0.5731 -0.6387 -0.6103
17427THY    HM322994   7.893   6.521   3.048 -0.0387  0.7661 -0.8855
17427THY    CA622995   8.009   6.770   3.148 -0.3176  0.3187  0.5500
17427THY    HA622996   7.971   6.807   3.053 -0.2498  0.1814  0.2702
17428THY      O22997   6.157   3.753   5.557  0.9538  0.3104  0.6147
17428THY     HO22998   6.169   3.829   5.498  0.1533 -2.4594 -1.2540
17428THY    CA122999   6.027   3.711   5.547 -0.0106 -0.0150 -0.3856
17428THY    CA223000   5.998   3.585   5.487  0.4830  0.5000 -0.7533
17428THY    CP123001   6.104   3.478   5.464 -0.7270  0.1310 -0.1846
17428THY    HP123002   6.203   3.496   5.508 -1.4483  1.5621  0.4953
17428THY    CP223003   6.114   3.472   5.314  0.0700  0.5819 -0.4620
17428THY    HP223004   6.146   3.572   5.281 -2.1967 -1.9242 -0.4539
17428THY    HP323005   6.013   3.461   5.274  0.3920 -0.1957 -0.6477
17428THY    HP423006   6.178   3.388   5.285  3.7080  1.1798  1.8720
17428THY    CP323007   6.066   3.340   5.528 -0.6543 -0.8781  0.3924
17428THY    HP523008   5.998   3.282   5.465  3.2730 -2.3513 -3.1630
17428THY    HP623009   6.033   3.342   5.633  0.6545 -0.4289  3.1696
17428THY    HP723010   6.156   3.278   5.534  0.8618  0.4188  2.5779
17428THY    CA323011   5.857   3.566   5.457  0.1557  0.4617  0.3287
17428THY    HA323012   5.820   3.477   5.405 -1.5072  1.0540  0.6344
17428THY    CA423013   5.762   3.662   5.491 -0.0187 -0.4437 -0.0112
17428THY    HA423014   5.657   3.649   5.465 -0.8940  3.1244 -1.1389
17428THY    CA523015   5.797   3.786   5.545  0.6161  0.1458  0.1110
17428THY    CM123016   5.689   3.889   5.575 -0.6733 -0.3200 -0.3996
17428THY    HM123017   5.624   3.914   5.490  0.0070 -1.0587 -1.0667
17428THY    HM223018   5.730   3.985   5.608 -0.0540 -2.0573 -0.0214
17428THY    HM323019   5.633   3.837   5.653  1.2498  2.0024  0.7883
17428THY    CA623020   5.929   3.805   5.579 -0.3916  0.6419  0.3031
17428THY    HA623021   5.958   3.902   5.620  1.2482  2.0047 -0.7157
17429THY      O23022   1.149   7.286   4.331 -0.4554  0.1958 -0.1367
17429THY     HO23023   1.193   7.208   4.295  1.5073 -0.3777  1.1542
17429THY    CA123024   1.046   7.307   4.249 -0.3382 -0.9801  0.4566
17429THY    CA223025   1.016   7.432   4.202  0.0620  0.6021 -0.6941
17429THY    CP123026   1.099   7.558   4.234  0.3124 -0.4622 -0.3585
17429THY    HP123027   1.091   7.631   4.152  1.7080 -0.6908 -0.4289
17429THY    CP223028   1.249   7.535   4.225 -0.0598  0.0863 -0.9063
17429THY    HP223029   1.301   7.631   4.212  0.2062  0.2042 -1.0346
17429THY    HP323030   1.274   7.476   4.136 -0.2283 -0.8312  0.3402
17429THY    HP423031   1.282   7.484   4.316 -1.5943  0.3037 -1.5739
17429THY    CP323032   1.055   7.631   4.360  0.1082 -0.0491  0.0194
17429THY    HP523033   0.947   7.645   4.355 -0.4581 -1.3162 -3.6322
17429THY    HP623034   1.101   7.730   4.369 -0.5685  0.7593  0.2669
17429THY    HP723035   1.071   7.574   4.453 -0.2674  1.0701  1.6686
17429THY    CA323036   0.895   7.453   4.131 -0.0171 -0.3359 -0.1194
17429THY    HA323037   0.871   7.556   4.105  2.4546  1.7250  1.0932
17429THY    CA423038   0.818   7.345   4.103  0.3389  0.2416 -0.1566
17429THY    HA423039   0.727   7.353   4.045  1.1510 -0.9284  1.0560
17429THY    CA523040   0.851   7.220   4.151 -0.2379  0.8226 -0.0342
17429THY    CM123041   0.759   7.107   4.115 -0.6971  0.0641  0.1937
17429THY    HM123042   0.777   7.016   4.174 -0.9875  0.2411  0.2503
17429THY    HM223043   0.743   7.079   4.010  0.3146  0.4061 -1.8347
17429THY    HM323044   0.655   7.122   4.144 -0.3823  1.4442 -0.2103
17429THY    CA623045   0.962   7.199   4.224  0.7524 -0.0114  0.4299
17429THY    HA623046   0.984   7.097   4.255  2.0048 -1.5683  0.1884
17430THY      O23047   0.744   2.452   1.856  0.4193  0.7932  0.0047
17430THY     HO23048   0.675   2.507   1.816  1.4747  2.0435  2.4096
17430THY    CA123049   0.735   2.455   1.995  0.1239 -0.3054 -0.5536
17430THY    CA223050   0.851   2.468   2.074 -0.4563 -0.1640  0.0922
17430THY    CP123051   0.995   2.462   2.012 -0.1759  0.3045 -0.0156
17430THY    HP123052   1.005   2.378   1.942  0.4311  0.9573 -0.4992
17430THY    CP223053   1.105   2.431   2.112 -0.7781  0.3148 -0.6990
17430THY    HP223054   1.196   2.405   2.057 -0.0961 -1.0695  3.7221
17430THY    HP323055   1.067   2.362   2.189  0.9032  2.9361  1.1199
17430THY    HP423056   1.131   2.522   2.167  1.3928 -0.5284 -0.7515
17430THY    CP323057   1.033   2.596   1.939 -0.1401 -0.5213 -0.5132
17430THY    HP523058   0.960   2.623   1.862  0.6732 -0.9936  0.4000
17430THY    HP623059   1.130   2.596   1.888  0.6471  0.7668  2.5489
17430THY    HP723060   1.040   2.681   2.008  0.4014 -4.1088  2.6082
17430THY    CA323061   0.832   2.491   2.212 -0.1737 -0.0330  0.0284
17430THY    HA323062   0.920   2.493   2.276 -0.6235  0.5806  0.7898
17430THY    CA423063   0.703   2.502   2.271  0.6167  0.3405  0.5543
17430THY    HA423064   0.688   2.497   2.378 -0.5278  0.1237 -2.1239
17430THY    CA523065   0.595   2.500   2.187 -0.4794 -0.4589  0.2115
17430THY    CM123066   0.458   2.508   2.250 -0.0540  0.1266  0.2529
17430THY    HM123067   0.466   2.577   2.335 -2.5839  0.0215  0.7982
17430THY    HM223068   0.439   2.408   2.289  2.8699 -1.9045 -1.2339
17430THY    HM323069   0.380   2.539   2.179  0.4598 -0.2523  0.7051
17430THY    CA623070   0.610   2.478   2.049  0.0867 -0.1226  0.4740
17430THY    HA623071   0.519   2.472   1.991  0.6380 -0.9568  0.0076
17431THY      O23072   1.903   1.596   2.093 -0.3521 -0.2844  0.2936
17431THY     HO23073   1.923   1.540   2.017  2.2852  0.0073  0.7259
17431THY    CA123074   2.007   1.564   2.176  0.2995 -0.0813 -0.1086
17431THY    CA223075   2.038   1.629   2.296  1.0668  0.3415  0.0194
17431THY    CP123076   1.941   1.753   2.337 -0.3416  0.5975 -0.2805
17431THY    HP123077   1.920   1.809   2.245  1.1216  0.1954 -0.3391
17431THY    CP223078   2.014   1.849   2.434  0.1446 -0.0002 -0.2355
17431THY    HP223079   1.948   1.933   2.456  1.6743 -2.9901  1.9152
17431THY    HP323080   2.101   1.891   2.382  0.9518  0.9364 -0.7076
17431THY    HP423081   2.052   1.790   2.518 -0.2299  0.6888  0.4857
17431THY    CP323082   1.816   1.694   2.405 -0.1431 -0.8299 -0.4613
17431THY    HP523083   1.846   1.625   2.485  1.0677 -2.3122 -1.7469
17431THY    HP623084   1.760   1.627   2.338 -0.3541 -0.5117 -0.6050
17431THY    HP723085   1.741   1.768   2.436 -2.9603  0.4426 -3.5589
17431THY    CA323086   2.151   1.590   2.371  0.3406  0.3117 -0.3413
17431THY    HA323087   2.194   1.640   2.458  2.8136 -1.0826  0.0994
17431THY    CA423088   2.223   1.483   2.325 -0.3949  0.3282  0.0607
17431THY    HA423089   2.319   1.457   2.369  0.9200 -2.0921  0.5026
17431THY    CA523090   2.194   1.418   2.205  0.4877 -0.2239  0.3673
17431THY    CM123091   2.284   1.305   2.147 -0.1730 -0.2614 -0.3331
17431THY    HM123092   2.359   1.273   2.221 -1.1670  0.4548 -1.0609
17431THY    HM223093   2.330   1.341   2.054  2.3525  1.2115  0.5469
17431THY    HM323094   2.228   1.215   2.121  0.3782 -2.8036 -0.0058
17431THY    CA623095   2.077   1.449   2.139 -0.8428  0.5706  0.4825
17431THY    HA623096   2.064   1.404   2.041  0.3435  1.1622 -1.2228
17432THY      O23097   1.580   1.711   5.331 -0.2576 -0.0222  0.6088
17432THY     HO23098   1.586   1.780   5.264 -0.8768 -0.5257  0.1833
17432THY    CA123099   1.537   1.768   5.443 -0.0147 -0.0322 -0.7840
17432THY    CA223100   1.523   1.913   5.452  0.3334 -0.5872 -0.0847
17432THY    CP123101   1.583   2.001   5.350 -0.5123 -1.0922 -0.6203
17432THY    HP123102   1.647   1.945   5.281  0.7924  1.0835 -1.9626
17432THY    CP223103   1.672   2.109   5.404 -0.7646  0.3979  0.0188
17432THY    HP223104   1.750   2.058   5.462 -0.6022 -0.1617 -0.3754
17432THY    HP323105   1.624   2.183   5.469 -1.8121  0.4578 -0.6903
17432THY    HP423106   1.704   2.173   5.321 -1.1503  0.9283  0.9243
17432THY    CP323107   1.470   2.062   5.261  0.4726 -0.3585  0.8962
17432THY    HP523108   1.407   1.975   5.236  1.4022 -3.4488  0.9736
17432THY    HP623109   1.508   2.115   5.173 -2.1803 -0.7031  2.4409
17432THY    HP723110   1.408   2.122   5.329 -0.3668  0.3377 -0.7142
17432THY    CA323111   1.455   1.974   5.565 -0.2634  0.6566  0.2137
17432THY    HA323112   1.443   2.082   5.565  2.0306 -2.3039  0.5832
17432THY    CA423113   1.405   1.891   5.665  0.8570  0.3548 -0.0831
17432THY    HA423114   1.342   1.938   5.741  0.6878 -1.3955  2.7234
17432THY    CA523115   1.420   1.752   5.653 -0.0705  0.2275 -0.5157
17432THY    CM123116   1.352   1.667   5.753  0.1202  0.5420 -0.1857
17432THY    HM123117   1.385   1.691   5.855  1.6192  0.3181 -1.1239
17432THY    HM223118   1.377   1.560   5.747  1.3271  0.4817  0.0862
17432THY    HM323119   1.247   1.697   5.750  0.2495 -3.1352  0.3144
17432THY    CA623120   1.483   1.693   5.543  0.3817  0.4173  0.0622
17432THY    HA623121   1.472   1.586   5.537  0.6041 -1.4091  0.1118
17433THY      O23122   2.346   1.594   5.365  0.0227 -0.5257 -0.1626
17433THY     HO23123   2.396   1.655   5.308 -1.4864 -1.7918 -0.0309
17433THY    CA123124   2.214   1.616   5.347 -0.2072  0.3720 -0.2207
17433THY    CA223125   2.111   1.534   5.393  0.9278 -0.4413  0.1283
17433THY    CP123126   2.140   1.394   5.443 -0.1185 -0.6726  0.1898
17433THY    HP123127   2.208   1.344   5.373  1.7183  1.3619 -0.2870
17433THY    CP223128   2.017   1.299   5.455  0.0448 -0.2456  0.6320
17433THY    HP223129   2.049   1.197   5.480 -0.4542  0.0792  0.5501
17433THY    HP323130   1.961   1.283   5.362 -1.1683  0.6876 -0.8343
17433THY    HP423131   1.957   1.324   5.543 -2.1036 -1.5100  0.1688
17433THY    CP323132   2.214   1.392   5.576  0.7336 -0.0608  0.1550
17433THY    HP523133   2.152   1.436   5.655  0.7002 -0.1958  0.3537
17433THY    HP623134   2.304   1.454   5.578  0.1251  0.3201  1.0569
17433THY    HP723135   2.236   1.291   5.611  0.6341  0.6508  0.3740
17433THY    CA323136   1.978   1.587   5.400  0.0433  0.8178 -0.6447
17433THY    HA323137   1.899   1.523   5.437 -2.1143 -1.6948  0.3555
17433THY    CA423138   1.959   1.726   5.365 -0.2897 -0.6007  0.0262
17433THY    HA423139   1.857   1.764   5.361  0.2049 -1.3192  1.3669
17433THY    CA523140   2.061   1.801   5.308  0.8252 -0.2613  0.3325
17433THY    CM123141   2.024   1.943   5.274  0.4527  0.5683  0.5474
17433THY    HM123142   2.062   2.014   5.348  2.3203 -0.1904  0.3933
17433THY    HM223143   1.917   1.954   5.254  0.5410 -0.7635 -0.7312
17433THY    HM323144   2.061   1.966   5.174 -0.7795  0.1677  0.8645
17433THY    CA623145   2.191   1.752   5.301  0.0261 -0.4784 -0.1060
17433THY    HA623146   2.264   1.816   5.253  1.4232  1.7358  0.0618
17434THY      O23147   8.992   2.042   6.465 -0.1652  0.2936  0.2450
17434THY     HO23148   8.984   1.990   6.383  2.2517  1.0630 -1.5169
17434THY    CA123149   8.870   2.033   6.530 -0.1582 -0.0534 -0.4579
17434THY    CA223150   8.852   2.038   6.670 -0.5299 -0.1686 -0.2854
17434THY    CP123151   8.973   2.058   6.762  0.8426 -0.7418 -0.1272
17434THY    HP123152   9.042   2.125   6.708 -2.7597 -4.8312  0.7732
17434THY    CP223153   9.048   1.924   6.775  0.4537 -0.1345 -0.0294
17434THY    HP223154   9.141   1.930   6.831  1.8192 -2.3913  1.9123
17434THY    HP323155   9.089   1.899   6.677  2.8075  0.7371  0.2323
17434THY    HP423156   8.986   1.844   6.816  0.2439 -0.9173 -0.2830
17434THY    CP323157   8.942   2.110   6.907 -0.0349 -0.2385 -0.4282
17434THY    HP523158   8.914   2.023   6.969  1.0098  3.2904  1.5410
17434THY    HP623159   8.853   2.173   6.897 -0.2450  0.7979 -0.5307
17434THY    HP723160   9.033   2.145   6.957  1.5871 -2.5115 -1.2033
17434THY    CA323161   8.720   2.021   6.723 -0.3357 -0.1972  0.2970
17434THY    HA323162   8.716   1.996   6.829  0.4867  0.5359  2.9772
17434THY    CA423163   8.608   2.000   6.638  0.1265  0.6313  1.2841
17434THY    HA423164   8.515   1.974   6.685  0.6411  0.5897 -0.7577
17434THY    CA523165   8.624   1.981   6.499 -0.0894 -0.0395 -0.6556
17434THY    CM123166   8.511   1.944   6.406 -0.8217  0.2952  0.3446
17434THY    HM123167   8.478   2.031   6.348 -1.2335 -0.8787 -0.5692
17434THY    HM223168   8.422   1.911   6.459 -0.9790  0.8520  1.5866
17434THY    HM323169   8.554   1.872   6.335 -2.0648  0.9402 -1.0872
17434THY    CA623170   8.754   2.010   6.451 -0.1258  0.1835 -0.4146
17434THY    HA623171   8.764   2.009   6.342 -2.2740 -0.0565 -1.3189
17435THY      O23172   3.789   4.610   1.780 -0.3116  0.2265  0.2148
17435THY     HO23173   3.805   4.637   1.688  0.5362  0.1229 -0.5877
17435THY    CA123174   3.674   4.671   1.817  0.5174 -0.0533  0.3129
17435THY    CA223175   3.679   4.780   1.899  0.2794 -0.7504 -0.4372
17435THY    CP123176   3.821   4.830   1.945 -0.5914 -0.0692  0.5555
17435THY    HP123177   3.895   4.751   1.960  0.4120 -2.0501  1.0457
17435THY    CP223178   3.820   4.893   2.079  0.3378  0.2041 -0.1050
17435THY    HP223179   3.764   4.837   2.154  0.6993  0.5713  0.0215
17435THY    HP323180   3.761   4.984   2.067  0.7350 -0.6605  0.0523
17435THY    HP423181   3.920   4.923   2.113  2.6770 -2.1395 -4.3174
17435THY    CP323182   3.872   4.929   1.830  0.1126 -0.5507 -0.2278
17435THY    HP523183   3.783   4.980   1.791  0.1597  2.3572  2.3526
17435THY    HP623184   3.923   4.873   1.751  0.0159 -0.5632 -0.2986
17435THY    HP723185   3.930   5.013   1.872 -0.9366 -1.4767  1.0086
17435THY    CA323186   3.558   4.838   1.940 -0.0675 -0.4309  0.2092
17435THY    HA323187   3.549   4.927   2.001 -0.1789  0.6649 -0.5410
17435THY    CA423188   3.443   4.784   1.894 -0.3321 -0.3426  0.0869
17435THY    HA423189   3.347   4.831   1.911 -0.4385 -0.3033 -0.1403
17435THY    CA523190   3.442   4.667   1.814 -0.3821 -0.5995  0.3018
17435THY    CM123191   3.311   4.605   1.775 -0.1323  1.1955  0.3978
17435THY    HM123192   3.265   4.652   1.687  0.3365  0.7106 -0.0300
17435THY    HM223193   3.232   4.612   1.851 -1.9059 -0.3967 -1.0441
17435THY    HM323194   3.315   4.499   1.747  1.3626 -1.2485  1.0126
17435THY    CA623195   3.558   4.615   1.769 -0.3429 -0.1021 -0.4950
17435THY    HA623196   3.561   4.525   1.708 -2.9415 -1.3265  0.1701
17436THY      O23197   6.783   1.304   6.504  0.1052  0.0972  0.2266
17436THY     HO23198   6.788   1.320   6.600  2.7030 -0.0043  0.4718
17436THY    CA123199   6.652   1.275   6.479 -0.0710 -0.5124  0.7305
17436THY    CA223200   6.583   1.316   6.358 -0.2112 -0.3278  0.5779
17436THY    CP123201   6.661   1.396   6.248 -0.0905  0.1707 -0.0088
17436THY    HP123202   6.765   1.419   6.275  0.9408 -2.4422 -1.2933
17436THY    CP223203   6.587   1.523   6.220  0.5332 -0.1136 -0.2829
17436THY    HP223204   6.484   1.510   6.185 -0.6591  2.5831  0.9342
17436THY    HP323205   6.646   1.589   6.155  0.1434 -2.0775 -1.7930
17436THY    HP423206   6.568   1.572   6.317 -0.1740 -0.1037 -0.5574
17436THY    CP323207   6.682   1.321   6.116 -0.4238  0.3868 -0.0857
17436THY    HP523208   6.587   1.273   6.087 -0.2921 -0.1267 -0.0318
17436THY    HP623209   6.760   1.246   6.133 -1.1934 -0.7060 -1.1681
17436THY    HP723210   6.713   1.390   6.037  2.0042  2.6270  1.5869
17436THY    CA323211   6.443   1.283   6.349 -0.3784 -0.3184  0.2213
17436THY    HA323212   6.387   1.296   6.257 -0.9928 -0.1056 -0.8179
17436THY    CA423213   6.378   1.216   6.451  0.3708 -0.4858 -0.0196
17436THY    HA423214   6.271   1.199   6.438 -0.1909  1.8908  1.2237
17436THY    CA523215   6.449   1.174   6.566  1.3150 -0.2976  0.2759
17436THY    CM123216   6.377   1.092   6.682  0.3928 -0.0401 -0.4748
17436THY    HM123217   6.425   1.114   6.778 -1.3608  0.4075  1.7898
17436THY    HM223218   6.382   0.986   6.655 -0.9388 -2.4593  0.0105
17436THY    HM323219   6.274   1.127   6.672  0.6598 -2.6031 -0.1926
17436THY    CA623220   6.579   1.213   6.582  0.0711 -0.6782  0.0761
17436THY    HA623221   6.624   1.178   6.675 -0.1781 -0.4562  0.3305
17437THY      O23222   6.393   1.746   5.620  0.6279 -0.5565  0.0188
17437THY     HO23223   6.484   1.728   5.649 -0.0584  1.6040 -0.2543
17437THY    CA123224   6.368   1.681   5.503 -0.4902  0.0914  0.0564
17437THY    CA223225   6.237   1.656   5.457 -0.2147  0.9250 -0.2203
17437THY    CP123226   6.113   1.704   5.538 -0.0082  0.8288 -0.1552
17437THY    HP123227   6.133   1.736   5.641 -1.4325  1.1576 -0.2992
17437THY    CP223228   6.002   1.594   5.535 -0.3360  0.6377 -0.0874
17437THY    HP223229   5.955   1.581   5.437 -0.0699  0.5547 -0.4369
17437THY    HP323230   5.927   1.628   5.607  0.4380  1.7893 -0.7658
17437THY    HP423231   6.049   1.501   5.568  1.4871  1.7579  1.1554
17437THY    CP323232   6.049   1.826   5.457  0.1361  0.0003 -0.4873
17437THY    HP523233   5.944   1.831   5.488 -0.2389 -1.2534 -0.1761
17437THY    HP623234   6.040   1.810   5.349  0.3084  0.0401 -0.8674
17437THY    HP723235   6.098   1.923   5.472  0.8377  0.4160 -0.8978
17437THY    CA323236   6.221   1.599   5.326 -0.2289  0.9627 -0.4223
17437THY    HA323237   6.121   1.599   5.284 -0.2150  0.9091  0.6694
17437THY    CA423238   6.325   1.558   5.244 -0.6891 -0.0870 -0.1231
17437THY    HA423239   6.309   1.534   5.139 -2.2955  0.3606 -1.1693
17437THY    CA523240   6.459   1.567   5.298 -0.1238 -0.1528 -0.1528
17437THY    CM123241   6.569   1.527   5.213  0.0118 -0.0320  0.0062
17437THY    HM123242   6.664   1.549   5.264  0.4621 -1.2207  0.8521
17437THY    HM223243   6.581   1.587   5.123  1.8572  0.7713  0.9017
17437THY    HM323244   6.549   1.419   5.202 -2.0377 -3.4559  0.5948
17437THY    CA623245   6.482   1.631   5.425 -0.2911 -0.1059  0.2445
17437THY    HA623246   6.585   1.645   5.456 -0.1072  0.2360 -1.5615
17438THY      O23247   6.519   0.578   7.168  0.2963  0.5985 -0.0718
17438THY     HO23248   6.541   0.654   7.111  0.3945 -1.5830 -1.6387
17438THY    CA123249   6.551   0.625   7.290  0.1455  0.2855 -0.3579
17438THY    CA223250   6.476   0.594   7.400 -0.1053  0.2398 -0.0563
17438THY    CP123251   6.346   0.527   7.389 -0.0008  0.0730  0.0807
17438THY    HP123252   6.319   0.502   7.286 -1.6317  0.7370 -1.1042
17438THY    CP223253   6.233   0.600   7.462 -1.0107 -0.1519  0.2061
17438THY    HP223254   6.136   0.557   7.435 -0.4758  0.9165 -1.7663
17438THY    HP323255   6.228   0.706   7.433 -2.9837 -0.1162  0.1620
17438THY    HP423256   6.248   0.619   7.569 -0.5916 -0.4539  1.7564
17438THY    CP323257   6.360   0.383   7.458 -0.1670  0.3711  0.0973
17438THY    HP523258   6.446   0.323   7.426  0.1858 -1.5369  1.5224
17438THY    HP623259   6.265   0.329   7.450 -0.7662 -0.3017  1.2055
17438THY    HP723260   6.371   0.397   7.566 -2.2424  0.7167 -0.5108
17438THY    CA323261   6.517   0.641   7.527  0.0301  0.0300 -0.0056
17438THY    HA323262   6.464   0.598   7.612 -1.8554 -2.0653 -2.1169
17438THY    CA423263   6.632   0.724   7.544  0.0377 -0.6958  0.1932
17438THY    HA423264   6.670   0.753   7.641 -2.4204  0.4603 -0.2385
17438THY    CA523265   6.699   0.764   7.427 -0.2237  0.5682 -0.1656
17438THY    CM123266   6.835   0.827   7.435 -0.2686 -0.2302  0.2210
17438THY    HM123267   6.900   0.792   7.516 -0.3583 -0.6060 -0.8391
17438THY    HM223268   6.830   0.936   7.444 -1.7552 -1.1158  0.2525
17438THY    HM323269   6.895   0.802   7.346  0.9694  0.4331  0.7235
17438THY    CA623270   6.659   0.710   7.303  0.5078 -0.3098 -0.2300
17438THY    HA623271   6.724   0.736   7.220 -0.8427 -0.6920  2.2570
17439THY      O23272   4.230   6.197   2.357 -0.2803 -0.3438  0.5053
17439THY     HO23273   4.209   6.292   2.355 -0.0996 -1.0626  0.5428
17439THY    CA123274   4.107   6.123   2.368  0.5041  0.3880  0.2443
17439THY    CA223275   4.102   5.990   2.329  0.0417  0.1965 -0.0014
17439THY    CP123276   4.236   5.918   2.294 -0.5352 -1.0187  0.0796
17439THY    HP123277   4.330   5.974   2.304  0.7835  0.3924 -2.2057
17439THY    CP223278   4.240   5.850   2.154 -0.1453  0.6192 -0.1326
17439THY    HP223279   4.147   5.794   2.134 -0.9553 -2.2715  1.9762
17439THY    HP323280   4.329   5.788   2.145 -0.5217  2.1143 -0.9380
17439THY    HP423281   4.247   5.925   2.074 -2.9780 -1.5262 -1.9434
17439THY    CP323282   4.245   5.814   2.409 -0.6425  0.7869  0.8747
17439THY    HP523283   4.224   5.859   2.507 -1.8294  0.8542  0.2099
17439THY    HP623284   4.343   5.763   2.409 -0.6270 -3.9018  0.4713
17439THY    HP723285   4.164   5.740   2.401  0.5586 -1.3646 -0.3001
17439THY    CA323286   3.974   5.927   2.304  0.0319 -0.4801 -0.2053
17439THY    HA323287   3.970   5.831   2.255 -1.7146 -0.9216  0.0573
17439THY    CA423288   3.854   6.010   2.324  0.7231 -0.8581 -0.8690
17439THY    HA423289   3.757   5.962   2.310  1.2412 -0.1458 -2.1809
17439THY    CA523290   3.863   6.139   2.372 -0.2983 -0.0042  0.2653
17439THY    CM123291   3.742   6.226   2.407 -0.3742 -0.5740 -0.9745
17439THY    HM123292   3.654   6.173   2.444 -1.0432  1.6408  1.4540
17439THY    HM223293   3.710   6.268   2.310  0.1301 -0.6528 -0.7558
17439THY    HM323294   3.759   6.307   2.479  1.1814  0.8848 -2.5039
17439THY    CA623295   3.990   6.199   2.392  0.5608 -1.0210 -0.1121
17439THY    HA623296   3.992   6.301   2.427  0.1221  0.3414 -0.5527
17440THY      O23297   3.300   8.275   2.393  0.2262 -0.1948 -0.1097
17440THY     HO23298   3.352   8.194   2.385 -0.1573  0.5163 -0.4386
17440THY    CA123299   3.221   8.256   2.501  0.1989 -0.0722 -0.5520
17440THY    CA223300   3.130   8.356   2.545  0.2017  0.1510 -0.0285
17440THY    CP123301   3.106   8.476   2.450  0.4947 -0.3431  0.0720
17440THY    HP123302   3.117   8.435   2.349 -0.0979 -0.8140  1.0454
17440THY    CP223303   3.211   8.586   2.468  0.0542  0.0910  0.2710
17440THY    HP223304   3.222   8.650   2.380 -0.7322 -1.1770 -1.2715
17440THY    HP323305   3.308   8.537   2.480  0.9161 -1.0637  1.6380
17440THY    HP423306   3.206   8.633   2.568 -0.2908  0.3586 -0.3236
17440THY    CP323307   2.963   8.533   2.461 -0.0597 -0.4891 -0.3102
17440THY    HP523308   2.888   8.454   2.451 -0.5944 -3.0982  0.4452
17440THY    HP623309   2.955   8.606   2.379  1.7471 -0.3464  0.0863
17440THY    HP723310   2.957   8.585   2.558 -0.7643  0.1101 -1.4823
17440THY    CA323311   3.045   8.329   2.656  0.1527 -0.1889  0.7033
17440THY    HA323312   2.974   8.400   2.698  0.1820  3.6828 -1.2411
17440THY    CA423313   3.074   8.219   2.737 -0.2137 -0.6881  0.6747
17440THY    HA423314   3.020   8.195   2.828  1.7665 -0.0663 -1.9129
17440THY    CA523315   3.166   8.124   2.696 -0.7284 -1.1095  0.3596
17440THY    CM123316   3.210   8.007   2.782  0.6526 -0.0560 -0.3010
17440THY    HM123317   3.233   7.913   2.730 -1.1646 -0.4724 -0.5427
17440THY    HM223318   3.138   7.984   2.862  0.4115  0.4103  1.8350
17440THY    HM323319   3.303   8.045   2.826  1.2510 -1.7273  0.2486
17440THY    CA623320   3.241   8.146   2.581 -0.3597  0.1971  0.1707
17440THY    HA623321   3.323   8.075   2.569 -1.7938  2.2625 -1.9581
17441THY      O23322   5.619   7.721   6.542  0.3218 -0.4564  0.5180
17441THY     HO23323   5.595   7.785   6.611 -0.5909 -1.2615  1.0760
17441THY    CA123324   5.519   7.737   6.457  0.8175 -0.3459 -0.2359
17441THY    CA223325   5.509   7.659   6.340  1.0592 -0.2192 -0.2876
17441THY    CP123326   5.614   7.553   6.299  0.3080 -0.3735  0.1175
17441THY    HP123327   5.711   7.571   6.347  0.8478 -1.6921  0.8339
17441THY    CP223328   5.651   7.551   6.150  0.0155 -0.5660 -0.6500
17441THY    HP223329   5.641   7.654   6.115 -1.5399  1.2506 -0.1170
17441THY    HP323330   5.593   7.474   6.097 -1.6960 -0.1515  0.3020
17441THY    HP423331   5.758   7.531   6.137  1.2497  1.3783  3.5298
17441THY    CP323332   5.567   7.412   6.345 -0.2711 -1.1697  0.9888
17441THY    HP523333   5.490   7.376   6.276 -0.2274 -1.7785  2.0271
17441THY    HP623334   5.531   7.418   6.449  0.2673 -1.0455  2.4490
17441THY    HP723335   5.648   7.337   6.340 -0.8986 -1.7556  0.3317
17441THY    CA323336   5.406   7.689   6.245  0.8657 -0.3856 -0.6318
17441THY    HA323337   5.404   7.633   6.153  0.2947 -1.0543  0.4477
17441THY    CA423338   5.315   7.796   6.266  0.2111 -0.0635 -0.7251
17441THY    HA423339   5.226   7.819   6.208  0.5382  0.3872  1.9349
17441THY    CA523340   5.320   7.861   6.392  0.0979  0.2394 -0.4899
17441THY    CM123341   5.211   7.954   6.437  0.6022 -0.4027  0.0752
17441THY    HM123342   5.158   7.907   6.520  0.9573  0.5807  1.3470
17441THY    HM223343   5.141   7.980   6.357 -0.0193  0.8466  2.5287
17441THY    HM323344   5.254   8.050   6.467 -1.2436 -2.3761  1.6321
17441THY    CA623345   5.417   7.828   6.484 -1.0553 -0.6587  0.6410
17441THY    HA623346   5.416   7.883   6.577  0.2434  0.2778 -0.8385
17442THY      O23347   9.268   7.604   5.225 -1.0356  0.2814 -0.8377
17442THY     HO23348   9.314   7.633   5.305  2.8967 -1.8584 -0.4632
17442THY    CA123349   9.135   7.626   5.243 -0.1931 -0.1980 -0.8646
17442THY    CA223350   9.046   7.592   5.145  0.4213 -0.2464  0.3349
17442THY    CP123351   9.077   7.484   5.033  0.1795  0.1375 -1.4676
17442THY    HP123352   9.186   7.487   5.017 -0.0541 -1.4542  0.2010
17442THY    CP223353   9.019   7.523   4.896 -0.2339  0.7274 -1.0437
17442THY    HP223354   9.051   7.623   4.863 -3.5151 -1.2774 -0.4889
17442THY    HP323355   8.910   7.533   4.906 -0.0621  0.3235  3.8153
17442THY    HP423356   9.030   7.452   4.813  0.2373  0.2200 -0.3956
17442THY    CP323357   9.030   7.345   5.064  0.0411  0.4049  0.5490
17442THY    HP523358   9.068   7.277   4.987  0.5594  1.2528 -0.1533
17442THY    HP623359   8.921   7.330   5.072 -0.1487 -0.8420  1.1922
17442THY    HP723360   9.053   7.316   5.168 -2.0170  0.5842 -0.6794
17442THY    CA323361   8.914   7.636   5.161  0.3534 -0.4294 -0.1081
17442THY    HA323362   8.840   7.587   5.098  1.8486 -0.7527 -2.1011
17442THY    CA423363   8.873   7.714   5.272  0.1488  0.3681 -0.0345
17442THY    HA423364   8.769   7.738   5.287  0.5437  0.1142  1.9479
17442THY    CA523365   8.964   7.745   5.369 -0.1921  0.6760  0.1068
17442THY    CM123366   8.921   7.826   5.490 -0.0644  0.6719 -0.3697
17442THY    HM123367   8.855   7.767   5.555 -0.1512 -0.1591 -1.2126
17442THY    HM223368   8.858   7.910   5.458 -1.1251  1.4872 -0.8237
17442THY    HM323369   9.007   7.871   5.541 -0.6364  1.2832  0.0580
17442THY    CA623370   9.091   7.697   5.355 -0.1880 -0.0219  0.8425
17442THY    HA623371   9.168   7.723   5.426 -1.5056  2.4555 -1.5617
17443THY      O23372   4.206   4.751   3.763  0.0584 -0.2259  0.0946
17443THY     HO23373   4.295   4.744   3.800  0.3290 -0.7416  0.6831
17443THY    CA123374   4.202   4.875   3.727  0.0032 -0.6166 -0.9621
17443THY    CA223375   4.083   4.942   3.699 -0.5361 -0.0957 -0.3599
17443THY    CP123376   3.951   4.877   3.674  0.6806 -0.6441 -0.2295
17443THY    HP123377   3.955   4.771   3.702 -0.6117 -0.5937 -0.2796
17443THY    CP223378   3.916   4.881   3.525  0.5327 -0.3817  0.6345
17443THY    HP223379   3.821   4.829   3.509  0.0056  4.7428 -0.5954
17443THY    HP323380   4.000   4.845   3.464 -0.2392 -2.8964  2.8188
17443THY    HP423381   3.897   4.983   3.489  2.1672  1.7604  1.7984
17443THY    CP323382   3.837   4.951   3.759  0.2570 -0.3399  0.1356
17443THY    HP523383   3.877   4.949   3.861  0.4843 -0.4344 -0.2053
17443THY    HP623384   3.734   4.916   3.742  0.7217 -1.1367 -0.9057
17443THY    HP723385   3.843   5.056   3.731  0.0694 -0.0854  0.2164
17443THY    CA323386   4.102   5.081   3.672  1.0233  0.1368 -0.2347
17443THY    HA323387   4.014   5.144   3.664 -0.2588  1.4770 -1.7814
17443THY    CA423388   4.221   5.140   3.684  0.8179  1.2764  0.2208
17443THY    HA423389   4.227   5.247   3.671  0.1740 -2.7861 -0.0662
17443THY    CA523390   4.338   5.063   3.698  0.1071  0.5086 -0.1580
17443THY    CM123391   4.463   5.133   3.688  0.1630 -0.3139  1.4643
17443THY    HM123392   4.453   5.236   3.651  0.3237 -1.3952  1.0964
17443THY    HM223393   4.539   5.090   3.622 -0.0340  0.0073  0.6135
17443THY    HM323394   4.501   5.135   3.791 -0.1899 -0.1679  0.6542
17443THY    CA623395   4.326   4.930   3.728 -0.4772 -0.2029 -0.3138
17443THY    HA623396   4.411   4.869   3.757 -2.3621  2.3235 -1.9387
17444THY      O23397   9.085   3.797   2.794  0.0827 -0.2328  0.1208
17444THY     HO23398   9.097   3.884   2.752  2.5263 -0.9623 -0.4829
17444THY    CA123399   9.047   3.822   2.920  0.1545 -0.2713 -0.2218
17444THY    CA223400   8.936   3.763   2.984 -1.1795  0.2313 -0.3882
17444THY    CP123401   8.859   3.658   2.910 -0.6931  0.0332 -0.0582
17444THY    HP123402   8.912   3.643   2.815 -1.3565  0.0360 -2.8271
17444THY    CP223403   8.711   3.693   2.894  0.1583  0.4195 -0.1023
17444THY    HP223404   8.700   3.790   2.846 -1.5435  0.4038 -0.2734
17444THY    HP323405   8.663   3.683   2.992  1.1865  0.8453 -1.1564
17444THY    HP423406   8.662   3.623   2.826  0.7478  0.4633 -0.5677
17444THY    CP323407   8.870   3.525   2.989 -0.0520  0.2155  0.2360
17444THY    HP523408   8.940   3.536   3.073  1.8388 -1.1860 -0.5899
17444THY    HP623409   8.912   3.443   2.931  0.3292 -1.5404  1.6187
17444THY    HP723410   8.776   3.488   3.033 -0.3069 -0.0065  0.6052
17444THY    CA323411   8.900   3.804   3.117  0.8405 -0.1479  0.5634
17444THY    HA323412   8.814   3.754   3.162  0.7531 -0.7046  0.2032
17444THY    CA423413   8.984   3.887   3.180 -1.3375 -0.6418 -0.2364
17444THY    HA423414   8.959   3.926   3.278 -1.0074 -0.2133 -1.0796
17444THY    CA523415   9.098   3.940   3.119 -0.0722 -0.0135  0.0514
17444THY    CM123416   9.174   4.047   3.190 -0.0347  0.1499 -0.2999
17444THY    HM123417   9.110   4.124   3.235  0.1704  1.9457 -1.1053
17444THY    HM223418   9.252   4.081   3.121  0.2049 -0.2393 -1.6049
17444THY    HM323419   9.231   4.005   3.274 -0.6382  0.3303 -0.7696
17444THY    CA623420   9.132   3.905   2.996  0.0114 -0.0205 -0.3353
17444THY    HA623421   9.213   3.960   2.950 -1.5461 -1.0818  1.1839
17445THY      O23422   6.291   5.914   2.517  0.2495 -0.3680  0.1949
17445THY     HO23423   6.251   6.001   2.497 -2.5698 -0.5439 -1.0201
17445THY    CA123424   6.300   5.892   2.645  0.0754  0.3740  0.0168
17445THY    CA223425   6.374   5.786   2.701 -0.1400 -0.0039 -0.2127
17445THY    CP123426   6.456   5.698   2.603 -0.5145  0.3830  0.0516
17445THY    HP123427   6.424   5.715   2.500  0.2142  0.1666  0.1303
17445THY    CP223428   6.445   5.548   2.644 -0.6149  0.3086 -0.1683
17445THY    HP223429   6.521   5.519   2.718 -1.6494  0.9401 -1.3670
17445THY    HP323430   6.452   5.472   2.565 -0.6068  0.6021 -0.4739
17445THY    HP423431   6.343   5.535   2.681 -0.8805  1.0263  3.1519
17445THY    CP323432   6.604   5.732   2.587  0.1411 -0.7742  0.1669
17445THY    HP523433   6.621   5.840   2.580 -4.0969 -2.2514  0.9285
17445THY    HP623434   6.647   5.692   2.494 -0.6241 -0.5053 -1.3398
17445THY    HP723435   6.656   5.708   2.680 -1.8748  0.5485  0.6375
17445THY    CA323436   6.392   5.777   2.838  0.4039 -0.2639  0.2119
17445THY    HA323437   6.454   5.698   2.878 -0.3650  1.2107  0.3274
17445THY    CA423438   6.328   5.867   2.919 -0.6811  0.3199 -0.3056
17445THY    HA423439   6.332   5.847   3.026 -0.1662  0.2595 -0.5553
17445THY    CA523440   6.254   5.974   2.859  0.0843 -0.2496  0.0078
17445THY    CM123441   6.195   6.083   2.942  0.1376 -0.3602 -0.4836
17445THY    HM123442   6.166   6.176   2.893 -1.9162  1.7928  0.1026
17445THY    HM223443   6.256   6.098   3.032 -2.3326  1.5814 -1.3751
17445THY    HM323444   6.101   6.046   2.984 -0.0839 -0.6371 -0.2378
17445THY    CA623445   6.238   5.978   2.727 -0.6090  0.2479 -0.4068
17445THY    HA623446   6.169   6.055   2.695 -2.1335  4.2229  0.1009
17446THY      O23447   3.221   1.255   3.124 -0.1353  0.2608 -0.1762
17446THY     HO23448   3.287   1.295   3.066 -2.2489 -1.1297  1.4821
17446THY    CA123449   3.190   1.362   3.198 -0.3291 -0.0679  0.1783
17446THY    CA223450   3.079   1.352   3.288 -0.3496  0.1503 -0.4202
17446THY    CP123451   3.000   1.226   3.297 -0.5992 -0.2324  0.5684
17446THY    HP123452   3.079   1.150   3.308 -1.0891  0.5929  0.1639
17446THY    CP223453   2.913   1.196   3.171 -1.1391 -0.3685 -0.5798
17446THY    HP223454   2.898   1.089   3.155 -0.1929 -0.4528 -0.7107
17446THY    HP323455   2.964   1.239   3.084 -1.3225  0.8733  2.4392
17446THY    HP423456   2.813   1.241   3.173 -0.6321 -1.2484  0.6444
17446THY    CP323457   2.926   1.200   3.432 -0.0512 -0.5920  1.1033
17446THY    HP523458   2.872   1.105   3.426  0.6959  0.3611  0.5955
17446THY    HP623459   2.853   1.280   3.447 -0.0224  0.5452  0.9285
17446THY    HP723460   2.996   1.210   3.516 -0.7748 -0.1463  2.6689
17446THY    CA323461   3.050   1.468   3.366 -0.6192 -0.5922  0.5350
17446THY    HA323462   2.956   1.472   3.420 -1.0676 -1.3313  0.1041
17446THY    CA423463   3.142   1.573   3.377 -0.1306  0.0678  0.3219
17446THY    HA423464   3.115   1.655   3.443 -2.8493 -2.1761  1.4158
17446THY    CA523465   3.253   1.569   3.295 -0.5156 -0.0514 -0.5071
17446THY    CM123466   3.350   1.687   3.290  0.1809 -0.4005 -0.3235
17446THY    HM123467   3.336   1.746   3.382 -0.2411  0.8011 -2.2194
17446THY    HM223468   3.334   1.742   3.197 -1.4025 -0.5401 -0.9652
17446THY    HM323469   3.447   1.638   3.290 -0.9821 -0.7841 -2.7523
17446THY    CA623470   3.279   1.459   3.204  0.0736 -0.3854 -0.2165
17446THY    HA623471   3.365   1.459   3.138  1.2951  1.1306 -0.7564
17447THY      O23472   6.415   0.280   2.667 -0.4440  0.4107  0.0015
17447THY     HO23473   6.427   0.259   2.762  0.2218 -0.0688 -1.9658
17447THY    CA123474   6.438   0.414   2.650 -0.1847 -0.7190 -0.5900
17447THY    CA223475   6.426   0.474   2.524 -0.0357 -0.3036 -0.5182
17447THY    CP123476   6.390   0.390   2.403  0.1753 -0.3477  0.8042
17447THY    HP123477   6.352   0.292   2.431  1.2943  2.0921  0.9837
17447THY    CP223478   6.515   0.370   2.317  0.5258 -0.4312  0.1550
17447THY    HP223479   6.528   0.458   2.253 -0.5466 -0.7797  0.0788
17447THY    HP323480   6.493   0.295   2.239 -3.2522  0.9274 -0.3843
17447THY    HP423481   6.601   0.342   2.378  1.0132 -1.9878 -2.0136
17447THY    CP323482   6.278   0.459   2.329  0.2726  0.5847  0.8328
17447THY    HP523483   6.317   0.537   2.262 -2.7372 -2.7904 -0.2739
17447THY    HP623484   6.203   0.504   2.394 -3.0523 -2.3175 -0.0837
17447THY    HP723485   6.221   0.391   2.265  1.3953  0.5277 -0.0861
17447THY    CA323486   6.448   0.614   2.507 -0.2351  0.1619  0.6983
17447THY    HA323487   6.421   0.663   2.414 -2.6821 -0.1257 -1.0345
17447THY    CA423488   6.475   0.693   2.622  0.4597 -0.3161 -0.9958
17447THY    HA423489   6.477   0.802   2.615  1.2285 -2.9554 -1.1052
17447THY    CA523490   6.478   0.626   2.749 -0.6217  0.3008 -0.4799
17447THY    CM123491   6.510   0.706   2.871  0.6947  0.7524  0.2306
17447THY    HM123492   6.422   0.770   2.886  0.8592 -0.7374  0.8413
17447THY    HM223493   6.602   0.765   2.871  0.7101 -0.7484  0.2424
17447THY    HM323494   6.518   0.642   2.960 -0.1957  0.7973  0.1612
17447THY    CA623495   6.462   0.490   2.761  0.1433 -0.0437 -0.0077
17447THY    HA623496   6.479   0.444   2.859 -2.1241  1.3700  1.9397
17448THY      O23497   2.678   3.205   5.900  0.0770  0.2925  0.4411
17448THY     HO23498   2.672   3.127   5.842  0.7308  0.5454  0.1946
17448THY    CA123499   2.730   3.298   5.818  0.1842 -0.3868  0.2093
17448THY    CA223500   2.728   3.431   5.860 -0.3064 -0.2852  0.3341
17448THY    CP123501   2.656   3.469   5.989  0.2453 -0.8029  0.1511
17448THY    HP123502   2.670   3.401   6.073 -1.6778  0.2135  0.9364
17448THY    CP223503   2.505   3.476   5.977 -0.4737 -0.0747 -0.0695
17448THY    HP223504   2.468   3.497   6.078  1.3837  0.8640 -1.0520
17448THY    HP323505   2.481   3.375   5.941 -2.2239 -1.7209  0.8785
17448THY    HP423506   2.490   3.549   5.897  1.7995  0.2859  0.8820
17448THY    CP323507   2.697   3.602   6.048 -0.7340 -0.1584  0.3073
17448THY    HP523508   2.804   3.601   6.069 -0.5028 -1.3096 -0.2993
17448THY    HP623509   2.640   3.617   6.140 -0.4406 -0.0460  0.7623
17448THY    HP723510   2.679   3.687   5.981 -0.9976 -0.9251 -0.3367
17448THY    CA323511   2.779   3.539   5.776 -0.1733 -0.0270  0.2658
17448THY    HA323512   2.784   3.645   5.800 -1.3638  0.0434  0.3150
17448THY    CA423513   2.838   3.496   5.657 -0.3107 -0.4502  0.0428
17448THY    HA423514   2.892   3.565   5.593 -1.9260 -3.6046 -1.4149
17448THY    CA523515   2.840   3.360   5.621 -0.3744  0.5372  0.1367
17448THY    CM123516   2.894   3.311   5.489  0.2687  0.0158  0.0478
17448THY    HM123517   2.909   3.203   5.480  0.7674  1.9023 -0.0775
17448THY    HM223518   2.992   3.361   5.485  0.2317 -3.7107  0.0994
17448THY    HM323519   2.835   3.346   5.404  0.1103  0.1172  0.0248
17448THY    CA623520   2.784   3.260   5.702  0.6432  0.8150  0.1176
17448THY    HA623521   2.775   3.157   5.671 -0.6513 -0.8581  0.6892
17449THY      O23522   8.040   7.202   5.349  0.1996  0.4623  0.0227
17449THY     HO23523   8.028   7.106   5.358  0.5246 -0.7331 -0.1449
17449THY    CA123524   7.973   7.230   5.238 -0.0353 -0.3312  0.7540
17449THY    CA223525   7.888   7.346   5.231 -0.3973  0.4948 -0.1787
17449THY    CP123526   7.884   7.441   5.346 -0.4267 -0.5147  0.5259
17449THY    HP123527   7.916   7.394   5.440  0.4628  1.3770  4.5382
17449THY    CP223528   7.751   7.500   5.374  0.0377 -0.1775  1.0822
17449THY    HP223529   7.679   7.419   5.361  0.2660  2.0046  0.4459
17449THY    HP323530   7.733   7.584   5.307 -1.0968 -4.2137 -2.0742
17449THY    HP423531   7.737   7.543   5.474 -1.3828  1.3524 -2.5450
17449THY    CP323532   7.985   7.547   5.324  0.1022 -0.2313  0.2523
17449THY    HP523533   8.085   7.504   5.308  0.7455  2.5747  0.5090
17449THY    HP623534   8.001   7.609   5.413  0.4746  0.4349 -0.7701
17449THY    HP723535   7.965   7.593   5.226  0.2713 -0.7323 -0.7101
17449THY    CA323536   7.833   7.381   5.101 -0.8648  0.9933  0.6234
17449THY    HA323537   7.776   7.473   5.087  0.1435 -0.6862  1.0355
17449THY    CA423538   7.854   7.292   4.993  0.0097  0.0463 -0.2109
17449THY    HA423539   7.803   7.315   4.900 -1.0994  0.7413  0.2171
17449THY    CA523540   7.947   7.190   5.004 -0.2825 -0.3564  0.0309
17449THY    CM123541   7.994   7.116   4.884  0.7943 -0.2060 -0.3914
17449THY    HM123542   8.103   7.105   4.883  0.7752 -0.2588 -0.5895
17449THY    HM223543   7.976   7.152   4.783 -0.4654  0.4417  0.8878
17449THY    HM323544   7.955   7.013   4.881  0.4526 -0.4302 -0.2557
17449THY    CA623545   8.009   7.156   5.127  0.2094  0.1462 -0.4637
17449THY    HA623546   8.080   7.075   5.119 -0.3821 -3.3477 -0.8070
17450THY      O23547   1.935   2.091   6.324  0.3196 -0.7730  0.6598
17450THY     HO23548   1.881   2.013   6.302 -1.2593  1.8281  0.8884
17450THY    CA123549   2.054   2.048   6.372 -0.4133 -0.2479 -0.1629
17450THY    CA223550   2.159   2.136   6.418  0.0933  0.1756  0.3843
17450THY    CP123551   2.142   2.285   6.417  0.3013 -0.1331 -0.4971
17450THY    HP123552   2.056   2.305   6.352 -0.4342  0.7551 -0.7450
17450THY    CP223553   2.261   2.358   6.364 -0.4633  0.1033  0.4538
17450THY    HP223554   2.352   2.359   6.425  0.1863 -0.8241 -0.4004
17450THY    HP323555   2.238   2.464   6.351 -2.6451 -0.7316 -0.0715
17450THY    HP423556   2.279   2.313   6.266 -2.4887  0.2396 -0.7724
17450THY    CP323557   2.118   2.331   6.562 -0.2208  0.1286  0.7243
17450THY    HP523558   2.212   2.320   6.618 -0.1973 -0.3441 -2.4020
17450THY    HP623559   2.048   2.258   6.603 -0.1179 -2.1968 -0.7953
17450THY    HP723560   2.084   2.435   6.566  0.2988  3.4445  0.8531
17450THY    CA323561   2.284   2.079   6.466 -0.2414 -0.0484  0.5040
17450THY    HA323562   2.369   2.145   6.482  0.5975  0.6587 -0.7156
17450THY    CA423563   2.292   1.944   6.479 -0.5397  0.3473  0.7371
17450THY    HA423564   2.379   1.892   6.520 -0.0967 -1.7069 -0.2465
17450THY    CA523565   2.187   1.854   6.443  1.0030  1.1547 -0.2827
17450THY    CM123566   2.197   1.705   6.448  0.3637 -0.5352 -0.0091
17450THY    HM123567   2.302   1.674   6.444  1.6252  1.7506  3.4371
17450THY    HM223568   2.150   1.663   6.358  4.2590 -2.4617 -0.6747
17450THY    HM323569   2.155   1.653   6.535  1.3481 -0.2423 -0.3302
17450THY    CA623570   2.067   1.908   6.389 -0.1397 -0.4804 -0.3176
17450THY    HA623571   1.989   1.845   6.346 -1.0435  0.3963  0.1770
17451THY      O23572   5.823   4.508   4.714  0.0088 -0.5591  0.0159
17451THY     HO23573   5.749   4.509   4.776  0.0865 -0.3515 -2.2645
17451THY    CA123574   5.808   4.379   4.672  0.4902  0.1244  0.3262
17451THY    CA223575   5.912   4.299   4.622 -0.4788 -0.1899 -1.7406
17451THY    CP123576   6.053   4.363   4.613  0.4202 -0.1154  0.5308
17451THY    HP123577   6.053   4.469   4.640 -2.2232  2.7773 -0.0472
17451THY    CP223578   6.117   4.359   4.470 -0.2641  0.2740 -0.1756
17451THY    HP223579   6.222   4.388   4.477  0.0814  1.6281 -1.6254
17451THY    HP323580   6.065   4.410   4.388  0.1067  0.9336  1.3161
17451THY    HP423581   6.122   4.254   4.440 -0.7410  0.5463 -0.2794
17451THY    CP323582   6.145   4.285   4.718  0.8375  0.6693  0.6446
17451THY    HP523583   6.115   4.306   4.821 -0.1414  0.2539  1.4436
17451THY    HP623584   6.247   4.325   4.720  0.5867  0.8713  1.2990
17451THY    HP723585   6.140   4.176   4.711  1.0999  1.0506  0.6066
17451THY    CA323586   5.894   4.167   4.587  0.0899 -0.5322 -0.3378
17451THY    HA323587   5.972   4.105   4.543  0.3198  0.0887 -0.5022
17451THY    CA423588   5.765   4.114   4.607 -0.3086  0.3593 -0.0659
17451THY    HA423589   5.737   4.015   4.570  3.6804 -1.5083 -0.6942
17451THY    CA523590   5.662   4.188   4.662 -0.5178 -0.6796 -0.1807
17451THY    CM123591   5.524   4.143   4.678 -0.1282 -0.4006  0.4619
17451THY    HM123592   5.497   4.160   4.783 -0.3972  0.0581 -2.2684
17451THY    HM223593   5.523   4.034   4.663 -1.6626 -2.1793  0.6739
17451THY    HM323594   5.444   4.184   4.616 -2.0832  0.9851 -1.0145
17451THY    CA623595   5.687   4.321   4.696 -0.3072  0.3711  0.3645
17451THY    HA623596   5.601   4.376   4.733 -1.4024 -0.7241 -0.5537
17452THY      O23597   9.089   6.606   5.662 -0.2570 -0.1766  0.0333
17452THY     HO23598   9.076   6.512   5.640 -2.4460 -1.3150  0.5191
17452THY    CA123599   9.059   6.679   5.552 -0.3307 -0.5416 -0.1538
17452THY    CA223600   9.103   6.815   5.536 -0.4092 -0.0741  0.3119
17452THY    CP123601   9.141   6.898   5.661 -0.0459  0.4536  0.6933
17452THY    HP123602   9.147   6.843   5.756  0.9879  0.5321  0.9157
17452THY    CP223603   9.041   7.012   5.677  0.2122 -0.8187 -1.0178
17452THY    HP223604   8.937   6.977   5.688 -0.9718 -1.0160  2.1335
17452THY    HP323605   9.028   7.070   5.586 -0.6681 -0.3126 -0.3965
17452THY    HP423606   9.073   7.070   5.764 -1.2081 -0.6267 -0.4792
17452THY    CP323607   9.285   6.958   5.652  0.0088 -0.3371  0.0052
17452THY    HP523608   9.364   6.886   5.626  1.4203  1.0848  0.9831
17452THY    HP623609   9.317   6.999   5.749  1.0983  0.3389 -2.2803
17452THY    HP723610   9.285   7.046   5.586  0.3890  0.9308  0.9908
17452THY    CA323611   9.108   6.880   5.410  0.1533 -1.0441 -0.1179
17452THY    HA323612   9.130   6.986   5.404 -1.2705 -1.9237  0.1560
17452THY    CA423613   9.058   6.812   5.303 -0.4426 -0.2117 -0.4951
17452THY    HA423614   9.040   6.868   5.211 -1.7898  1.4540  2.0239
17452THY    CA523615   9.005   6.681   5.320  0.3402  0.1057  0.0338
17452THY    CM123616   8.951   6.609   5.193  0.4406 -0.1376 -0.0476
17452THY    HM123617   8.983   6.646   5.096  3.1402  0.8755  0.4740
17452THY    HM223618   8.842   6.619   5.183  0.3507  0.2367 -0.5693
17452THY    HM323619   8.977   6.503   5.198 -0.4696 -1.8772 -0.3889
17452THY    CA623620   9.006   6.615   5.443  0.0500 -0.2008  0.2100
17452THY    HA623621   8.979   6.510   5.450  1.3458  1.1154 -0.0765
17453THY      O23622   3.764   7.914   4.306 -0.0604  0.4678  0.7223
17453THY     HO23623   3.742   7.821   4.320  1.1829  1.9653  0.6163
17453THY    CA123624   3.861   7.934   4.393  0.3421 -1.0327 -0.4926
17453THY    CA223625   3.942   8.044   4.386  0.0399  0.0425 -0.9664
17453THY    CP123626   3.915   8.152   4.286  0.0793  0.2221 -0.9593
17453THY    HP123627   3.831   8.129   4.220  0.3111 -1.6435  2.7660
17453THY    CP223628   4.026   8.165   4.187 -0.7222  0.2748 -0.3751
17453THY    HP223629   4.046   8.066   4.146 -0.2099  0.4493 -0.3535
17453THY    HP323630   4.120   8.194   4.236 -0.8062  0.7494 -0.8856
17453THY    HP423631   4.002   8.236   4.107 -1.4456  0.3024 -0.5824
17453THY    CP323632   3.886   8.287   4.355 -0.0417  0.1048  0.0680
17453THY    HP523633   3.864   8.357   4.273 -1.8474  0.4238 -0.0684
17453THY    HP623634   3.974   8.321   4.410  0.0835  0.9019 -1.4714
17453THY    HP723635   3.804   8.269   4.425  0.3042  0.3286 -0.6636
17453THY    CA323636   4.052   8.052   4.475  0.0295  0.2870 -0.2319
17453THY    HA323637   4.121   8.136   4.475 -0.5537 -0.0136  0.2540
17453THY    CA423638   4.093   7.940   4.553  0.3997  0.5886  0.1501
17453THY    HA423639   4.188   7.936   4.606  0.7967 -0.1510 -1.4371
17453THY    CA523640   4.016   7.822   4.546 -0.1715 -0.5083  0.1972
17453THY    CM123641   4.054   7.695   4.614  0.0567  0.4293  0.1762
17453THY    HM123642   4.154   7.684   4.657  0.4237 -0.7178 -1.4013
17453THY    HM223643   4.059   7.615   4.539  1.0009  1.6198 -0.9190
17453THY    HM323644   3.978   7.659   4.685  0.0480  0.3181 -0.0291
17453THY    CA623645   3.903   7.826   4.465 -0.2094  0.1117  0.1151
17453THY    HA623646   3.850   7.731   4.461  0.4030 -2.0903 -0.1913
17454THY      O23647   2.171   4.973   2.095 -0.3046  0.0722  0.5092
17454THY     HO23648   2.255   4.960   2.047 -1.1254 -1.3162  0.0433
17454THY    CA123649   2.075   4.931   2.017  0.2097 -0.1209  0.7146
17454THY    CA223650   1.966   4.865   2.075  0.3918 -0.1275  0.2706
17454THY    CP123651   1.945   4.876   2.229 -0.5453 -0.2490 -0.7284
17454THY    HP123652   1.976   4.977   2.259 -0.0758 -0.1201 -0.9120
17454THY    CP223653   2.013   4.762   2.302 -0.0962 -0.6705  0.0371
17454THY    HP223654   2.117   4.740   2.272 -0.6303 -1.1099 -2.1163
17454THY    HP323655   1.948   4.675   2.288 -2.1910  1.1503  1.2114
17454THY    HP423656   2.006   4.769   2.411  0.1070 -0.5246 -1.5506
17454THY    CP323657   1.797   4.880   2.266 -0.1342 -1.2477 -0.3793
17454THY    HP523658   1.793   4.910   2.371 -0.3266 -1.4638  0.3801
17454THY    HP623659   1.743   4.787   2.245  1.9999 -0.9451 -1.7578
17454THY    HP723660   1.749   4.964   2.215  0.9069 -0.0521  0.9848
17454THY    CA323661   1.868   4.805   1.993  0.0585 -0.2399 -0.6521
17454THY    HA323662   1.779   4.758   2.033  0.6156  1.5683 -0.2735
17454THY    CA423663   1.900   4.796   1.860 -0.3688  0.5343  0.0285
17454THY    HA423664   1.833   4.732   1.803 -0.1798 -0.9543  1.1131
17454THY    CA523665   2.009   4.864   1.797 -0.1200  0.8992 -0.0614
17454THY    CM123666   2.022   4.851   1.645 -0.6287 -0.2198  0.0716
17454THY    HM123667   2.063   4.938   1.593 -0.7167 -0.1142  0.1766
17454THY    HM223668   1.923   4.825   1.604 -1.7533  1.5692  1.2684
17454THY    HM323669   2.090   4.768   1.623 -0.8119 -1.1543  0.1580
17454THY    CA623670   2.103   4.924   1.879 -0.4579  0.0065 -1.0769
17454THY    HA623671   2.196   4.970   1.845 -0.6576  0.6975 -0.1320
17455THY      O23672   8.048   7.019   2.934  0.0136 -0.2607 -0.1213
17455THY     HO23673   8.113   7.006   2.863 -0.2420 -0.1908 -2.1555
17455THY    CA123674   7.941   7.090   2.887 -0.5345  0.4550  0.0460
17455THY    CA223675   7.882   7.193   2.961 -0.5081  0.3019  0.7147
17455THY    CP123676   7.925   7.224   3.107 -0.3947 -0.6982 -0.9934
17455THY    HP123677   8.027   7.190   3.129 -0.8249 -0.0328 -1.8848
17455THY    CP223678   7.830   7.166   3.211  0.4887 -0.3831  0.0513
17455THY    HP223679   7.725   7.169   3.178  0.0591  0.6589 -1.7879
17455THY    HP323680   7.850   7.214   3.307  0.8029  0.2584 -1.3274
17455THY    HP423681   7.869   7.065   3.228  1.0834 -0.0494  0.3358
17455THY    CP323682   7.936   7.379   3.127 -0.0573  0.0011 -0.5237
17455THY    HP523683   8.007   7.429   3.060  1.0357  2.7345  1.8464
17455THY    HP623684   7.971   7.416   3.224 -1.8118  1.0885 -1.5806
17455THY    HP723685   7.839   7.425   3.105  0.6604 -0.4743  0.8136
17455THY    CA323686   7.775   7.265   2.900 -0.5249 -0.5880 -0.6021
17455THY    HA323687   7.733   7.352   2.950 -0.3804 -0.3738 -0.6546
17455THY    CA423688   7.747   7.245   2.766 -0.0390 -0.3676  0.7278
17455THY    HA423689   7.675   7.300   2.706  0.5024 -1.5751  0.1704
17455THY    CA523690   7.810   7.141   2.691  0.1512  0.5985 -0.2900
17455THY    CM123691   7.775   7.126   2.540  0.0034  0.0895  0.3878
17455THY    HM123692   7.669   7.099   2.529  0.0525  0.1810  0.1557
17455THY    HM223693   7.850   7.060   2.495  1.4135 -0.2567  2.1481
17455THY    HM323694   7.789   7.220   2.485  1.7632  0.8769  0.6297
17455THY    CA623695   7.901   7.058   2.757 -0.1721  0.7156 -0.0400
17455THY    HA623696   7.967   6.987   2.707  0.3677  0.0038  0.9384
17456THY      O23697   4.961   1.879   5.855 -0.0420  0.5160  0.5463
17456THY     HO23698   5.010   1.962   5.864  1.0451 -4.0773  0.6784
17456THY    CA123699   4.971   1.858   5.724  0.6251  0.0610 -0.7055
17456THY    CA223700   4.883   1.779   5.651  0.2513 -0.0626 -0.7805
17456THY    CP123701   4.751   1.730   5.714 -0.1337  0.2743  0.1859
17456THY    HP123702   4.762   1.748   5.822 -2.9806  0.1623  3.5788
17456THY    CP223703   4.716   1.584   5.708  0.3326  0.0293 -0.1272
17456THY    HP223704   4.615   1.566   5.747 -0.0597  0.3153  2.2716
17456THY    HP323705   4.789   1.538   5.775  0.3416  1.3085  1.6242
17456THY    HP423706   4.744   1.549   5.608  3.3341 -0.2467  2.5895
17456THY    CP323707   4.633   1.810   5.669  0.0690  0.1428 -0.0190
17456THY    HP523708   4.668   1.913   5.675  1.4282 -1.7508 -0.3050
17456THY    HP623709   4.541   1.792   5.726  0.9297  1.1718 -1.3042
17456THY    HP723710   4.609   1.790   5.564  1.0857 -0.8336  3.2695
17456THY    CA323711   4.894   1.765   5.504  0.5823 -0.5561 -0.6708
17456THY    HA323712   4.819   1.715   5.443 -0.5387  1.1323 -1.1425
17456THY    CA423713   5.006   1.834   5.449  0.4007 -0.3459  0.4340
17456THY    HA423714   5.026   1.831   5.342 -0.7822 -0.5698 -1.8932
17456THY    CA523715   5.099   1.898   5.526  0.3610 -0.1311  0.3954
17456THY    CM123716   5.217   1.947   5.461  0.5165 -0.1565  0.4665
17456THY    HM123717   5.247   2.024   5.533 -4.9089  0.8998  2.0117
17456THY    HM223718   5.207   1.989   5.360  0.8380 -0.9662 -1.3012
17456THY    HM323719   5.298   1.873   5.454  0.8232  0.8833  0.6907
17456THY    CA623720   5.084   1.912   5.660 -0.2458 -0.3329 -0.2485
17456THY    HA623721   5.164   1.951   5.722  0.6497  0.6229 -3.3102
17457THY      O23722   4.697   4.425   4.393  0.8910  0.7829  0.2158
17457THY     HO23723   4.655   4.486   4.331  0.1880  0.1468 -0.8830
17457THY    CA123724   4.766   4.323   4.328 -0.8176 -0.1150 -0.6915
17457THY    CA223725   4.754   4.191   4.364  0.4128  1.2526  0.1657
17457THY    CP123726   4.704   4.155   4.500  0.3046 -0.4130 -0.5251
17457THY    HP123727   4.722   4.236   4.571 -1.7040 -1.2585  0.7325
17457THY    CP223728   4.782   4.044   4.566  0.2101  0.4579  0.5399
17457THY    HP223729   4.889   4.064   4.577  0.5603  0.3855 -1.1052
17457THY    HP323730   4.761   3.950   4.513 -1.2039  0.9113  0.5650
17457THY    HP423731   4.734   4.036   4.664  0.0349  0.3097 -0.4749
17457THY    CP323732   4.554   4.134   4.505 -0.4863  0.5182 -0.3808
17457THY    HP523733   4.519   4.131   4.608  0.5244  0.9430  1.3992
17457THY    HP623734   4.548   4.039   4.450  1.9877 -0.7099  0.0772
17457THY    HP723735   4.505   4.217   4.453  0.1736 -2.9849 -1.9912
17457THY    CA323736   4.820   4.101   4.273  0.3844 -0.3490  0.4661
17457THY    HA323737   4.820   3.994   4.295  0.5289 -1.8532  0.1386
17457THY    CA423738   4.895   4.142   4.164 -0.6419 -0.3220  0.0131
17457THY    HA423739   4.946   4.073   4.097 -1.8683 -0.0136 -1.2531
17457THY    CA523740   4.904   4.278   4.133  0.2413 -0.1586  0.4676
17457THY    CM123741   4.981   4.324   4.014 -0.4049  0.2687  0.7689
17457THY    HM123742   4.940   4.414   3.967 -0.7710 -2.4614 -0.7050
17457THY    HM223743   4.968   4.246   3.938  0.9508  1.8044 -1.0223
17457THY    HM323744   5.088   4.326   4.035 -0.7208  2.1978 -0.5122
17457THY    CA623745   4.837   4.369   4.215 -0.5821  0.0778  0.7575
17457THY    HA623746   4.847   4.474   4.189 -2.6975 -1.4514  0.6482
17458THY      O23747   6.742   2.908   2.513  0.0370  0.1698  0.3075
17458THY     HO23748   6.768   2.850   2.585 -1.3779  1.7756  1.5595
17458THY    CA123749   6.668   2.993   2.582  0.5417  0.3406  0.7815
17458THY    CA223750   6.572   3.079   2.526 -0.1611  0.4967  0.3796
17458THY    CP123751   6.546   3.077   2.379  0.7087  0.8312  0.0180
17458THY    HP123752   6.619   3.012   2.328 -0.4951  0.0577 -0.7688
17458THY    CP223753   6.568   3.216   2.323  0.0962  0.3136 -0.1132
17458THY    HP223754   6.667   3.254   2.350  0.4184 -1.9578  0.8302
17458THY    HP323755   6.492   3.285   2.361 -0.5516 -2.2028  0.6863
17458THY    HP423756   6.558   3.222   2.214 -0.7715  0.4500  1.9960
17458THY    CP323757   6.404   3.031   2.343  0.2759 -0.1030  0.2223
17458THY    HP523758   6.404   2.923   2.359  0.6595  1.7603  0.4679
17458THY    HP623759   6.367   3.051   2.242 -0.7512 -0.3080 -2.3972
17458THY    HP723760   6.341   3.090   2.412  1.5666 -0.4775  2.1380
17458THY    CA323761   6.505   3.163   2.615  0.2573 -0.4327 -0.0447
17458THY    HA323762   6.430   3.234   2.580  0.3378 -0.5152 -0.0006
17458THY    CA423763   6.526   3.154   2.757 -0.1493  0.2258 -0.7091
17458THY    HA423764   6.473   3.220   2.825 -0.3792 -0.9871  0.4093
17458THY    CA523765   6.607   3.054   2.810 -0.6825  0.1926 -0.2118
17458THY    CM123766   6.616   3.018   2.953 -0.4841 -0.4899  0.0320
17458THY    HM123767   6.521   3.042   3.003  0.7163  1.2022  1.5326
17458THY    HM223768   6.692   3.072   3.010 -1.0523  1.4647 -1.1507
17458THY    HM323769   6.635   2.911   2.965 -4.2093 -0.4165 -0.7629
17458THY    CA623770   6.687   2.980   2.722  0.6395 -0.2374  0.7912
17458THY    HA623771   6.759   2.911   2.764  1.9967 -1.2676  1.5214
17459THY      O23772   7.296   6.668   2.362  0.0952  0.3256 -0.5615
17459THY     HO23773   7.384   6.675   2.322 -0.2233 -0.3570 -0.4560
17459THY    CA123774   7.231   6.561   2.321  0.3095 -0.0623 -0.1516
17459THY    CA223775   7.106   6.534   2.378 -0.0903  1.1095 -0.3700
17459THY    CP123776   7.043   6.626   2.488  0.3875  0.2155 -0.2371
17459THY    HP123777   7.099   6.712   2.527  0.4348  0.8352 -0.5489
17459THY    CP223778   7.012   6.541   2.614  0.0054  0.4135  0.6284
17459THY    HP223779   7.034   6.604   2.701  2.6089 -0.1981  0.6820
17459THY    HP323780   7.071   6.449   2.620 -2.1948 -1.8792 -1.0586
17459THY    HP423781   6.912   6.498   2.611  0.5914 -1.4255 -0.7495
17459THY    CP323782   6.906   6.693   2.447 -0.3233 -0.6417 -0.0001
17459THY    HP523783   6.915   6.778   2.378 -0.0565 -1.3131 -0.5648
17459THY    HP623784   6.872   6.739   2.540  1.1485  0.3357 -0.8152
17459THY    HP723785   6.824   6.624   2.424 -1.1690 -0.1286  0.8138
17459THY    CA323786   7.043   6.417   2.328  0.2409  0.1095 -0.5734
17459THY    HA323787   6.946   6.384   2.363  0.6226  0.3148 -1.5014
17459THY    CA423788   7.110   6.331   2.240  0.3545 -0.5190 -0.2353
17459THY    HA423789   7.059   6.243   2.203 -1.1362 -2.7152  1.4512
17459THY    CA523790   7.233   6.365   2.197 -0.0160 -0.1601  0.3998
17459THY    CM123791   7.300   6.262   2.117  0.6080 -0.7134 -1.0046
17459THY    HM123792   7.349   6.188   2.182  0.6934  0.9514  0.4245
17459THY    HM223793   7.374   6.312   2.053 -0.3547  0.2475  1.8963
17459THY    HM323794   7.232   6.223   2.041  1.4776 -1.8823 -0.2988
17459THY    CA623795   7.302   6.475   2.245 -0.2450 -0.1077 -0.3916
17459THY    HA623796   7.407   6.496   2.225 -0.6164 -0.3647  1.3932
17460THY      O23797   8.432   1.337   3.955  0.2000 -0.1579 -0.2679
17460THY     HO23798   8.351   1.392   3.951  0.6909 -2.7493  0.4367
17460THY    CA123799   8.529   1.378   3.871  0.5098 -0.1597  0.0076
17460THY    CA223800   8.646   1.309   3.836 -0.4740 -0.4018  0.2837
17460THY    CP123801   8.679   1.172   3.897  1.1612  0.2952 -0.0034
17460THY    HP123802   8.608   1.134   3.971  0.8213  1.0486  2.0301
17460THY    CP223803   8.819   1.181   3.954  0.6599 -0.5454  0.8853
17460THY    HP223804   8.852   1.084   3.992  2.8165 -0.6869  1.5136
17460THY    HP323805   8.819   1.254   4.035  0.2686  0.5972 -0.3431
17460THY    HP423806   8.888   1.216   3.876  1.1701  0.1295  1.3829
17460THY    CP323807   8.696   1.079   3.775  0.5109  0.5642  0.6774
17460THY    HP523808   8.612   1.106   3.709 -1.2215  2.1764 -0.4708
17460THY    HP623809   8.674   0.976   3.806  1.0192 -1.5980 -0.1266
17460THY    HP723810   8.793   1.079   3.725  1.2662  1.9634  0.9130
17460THY    CA323811   8.740   1.377   3.755  0.0811  0.1850  0.2481
17460THY    HA323812   8.824   1.325   3.710 -0.3216 -0.0411 -0.2171
17460THY    CA423813   8.710   1.504   3.700  0.3003 -0.4337  0.0918
17460THY    HA423814   8.778   1.558   3.635  1.7697  0.8746 -0.1112
17460THY    CA523815   8.592   1.569   3.746 -0.1475 -0.1036 -0.4718
17460THY    CM123816   8.575   1.717   3.715 -0.0279  0.1276  0.3682
17460THY    HM123817   8.662   1.768   3.672  0.2436 -3.6081 -2.7945
17460THY    HM223818   8.536   1.757   3.809 -2.2730  0.4505 -2.3024
17460THY    HM323819   8.494   1.727   3.643 -1.3939  1.0278 -2.7257
17460THY    CA623820   8.502   1.500   3.822  0.8114 -0.0171 -0.2992
17460THY    HA623821   8.410   1.548   3.853  0.5462 -1.6453  0.2817
17461THY      O23822   4.373   9.220   2.307  0.0519  0.4151  0.2291
17461THY     HO23823   4.366   9.249   2.399  1.3125  1.5739 -2.6641
17461THY    CA123824   4.256   9.166   2.266  0.2268  0.4175  0.0081
17461THY    CA223825   4.243   9.057   2.180  0.3857 -0.4676 -0.0629
17461THY    CP123826   4.380   8.978   2.157 -0.2150 -0.4502 -1.0198
17461THY    HP123827   4.464   9.049   2.152 -0.7263 -0.7022 -0.4166
17461THY    CP223828   4.376   8.891   2.025  0.2072  0.1802 -0.5815
17461THY    HP223829   4.309   8.804   2.035  1.1762 -0.2901 -1.3977
17461THY    HP323830   4.477   8.852   2.016 -0.0123  1.6943 -1.5986
17461THY    HP423831   4.344   8.937   1.931  0.8310 -0.5862 -1.6748
17461THY    CP323832   4.406   8.885   2.277 -0.2791  0.3762  0.3411
17461THY    HP523833   4.394   8.937   2.373  2.8996  1.2033 -0.2341
17461THY    HP623834   4.500   8.828   2.272 -1.3590 -0.7051 -1.4181
17461THY    HP723835   4.342   8.797   2.289  1.4531  0.8022 -0.9146
17461THY    CA323836   4.122   9.024   2.121 -0.2985 -0.1252 -0.1761
17461THY    HA323837   4.110   8.939   2.054 -1.4486 -0.4752  0.2436
17461THY    CA423838   4.011   9.096   2.159  0.1458  0.0572 -0.1266
17461THY    HA423839   3.913   9.060   2.128 -0.3292  0.2984  0.9281
17461THY    CA523840   4.017   9.198   2.256 -0.2084  0.1063 -0.1513
17461THY    CM123841   3.898   9.277   2.296  0.1182  0.6029  0.3058
17461THY    HM123842   3.927   9.345   2.377  0.7841  1.2541 -0.7256
17461THY    HM223843   3.814   9.219   2.337  1.8363  2.3913 -1.0453
17461THY    HM323844   3.862   9.340   2.215 -1.2714  2.4777  2.0720
17461THY    CA623845   4.139   9.237   2.302 -0.4366 -0.1593  0.7273
17461THY    HA623846   4.142   9.319   2.373 -0.1401 -1.4896  1.8974
17462THY      O23847   2.409   4.310   7.127  0.1844 -0.0439 -0.6409
17462THY     HO23848   2.482   4.359   7.084 -3.0577 -4.9141  0.6660
17462THY    CA123849   2.418   4.301   7.264  0.5750  0.8110  0.1141
17462THY    CA223850   2.373   4.184   7.329  0.4711  0.4113  0.2770
17462THY    CP123851   2.293   4.076   7.247 -0.0706  0.1936  0.0787
17462THY    HP123852   2.234   4.127   7.170 -1.7489  2.6472  2.1171
17462THY    CP223853   2.194   3.996   7.334  0.0537 -0.3011  0.0390
17462THY    HP223854   2.135   4.057   7.403  1.3372  1.0369 -0.1499
17462THY    HP323855   2.243   3.918   7.394  0.3943  0.9339  1.1765
17462THY    HP423856   2.124   3.942   7.269 -2.6485  2.6576 -0.3124
17462THY    CP323857   2.382   3.971   7.172 -0.4719 -0.1565 -0.0460
17462THY    HP523858   2.371   3.867   7.205  0.1346  1.0727  0.2572
17462THY    HP623859   2.485   4.007   7.178 -1.2606 -1.1078  2.6195
17462THY    HP723860   2.363   3.971   7.064  0.7742 -0.4088  1.4131
17462THY    CA323861   2.388   4.167   7.465  0.2725 -0.5047  0.6540
17462THY    HA323862   2.367   4.070   7.510  1.4761 -1.1294  0.0904
17462THY    CA423863   2.463   4.259   7.535 -0.4294 -0.0443  0.5331
17462THY    HA423864   2.477   4.244   7.642 -2.1144  0.0791 -0.5075
17462THY    CA523865   2.519   4.373   7.473  0.1831 -0.4501  0.1755
17462THY    CM123866   2.605   4.474   7.553  0.8210 -0.2209 -0.1642
17462THY    HM123867   2.681   4.426   7.616  1.0014 -0.5966 -0.3816
17462THY    HM223868   2.529   4.542   7.591 -0.0331 -3.4666  0.8955
17462THY    HM323869   2.657   4.542   7.484 -1.3268  0.0957  1.9219
17462THY    CA623870   2.497   4.393   7.338 -0.2281 -0.0308  0.0152
17462THY    HA623871   2.539   4.474   7.279 -2.1156  0.7178  1.6284
17463THY      O23872   5.943   1.046   1.986 -0.3930 -0.4086 -0.0680
17463THY     HO23873   5.885   1.067   1.912 -1.0469  0.3815  1.0193
17463THY    CA123874   5.869   0.970   2.065 -0.0107 -0.5794  0.2346
17463THY    CA223875   5.923   0.917   2.185 -0.2543  0.2241 -0.5106
17463THY    CP123876   6.066   0.953   2.229  0.4371 -0.1541 -0.6982
17463THY    HP123877   6.134   0.987   2.150  0.8646  0.7694  0.6618
17463THY    CP223878   6.146   0.831   2.277 -0.1229 -0.6061  0.0605
17463THY    HP223879   6.249   0.861   2.300 -0.6978  1.6497  0.4664
17463THY    HP323880   6.137   0.754   2.200 -0.0504 -1.2091  0.6443
17463THY    HP423881   6.110   0.782   2.368 -0.5953 -1.5699 -1.4301
17463THY    CP323882   6.069   1.062   2.338 -1.0351 -0.2022 -0.0337
17463THY    HP523883   6.177   1.069   2.357 -0.1850 -3.9980 -0.7254
17463THY    HP623884   6.010   1.042   2.428 -1.8880 -0.2262  2.0686
17463THY    HP723885   6.046   1.163   2.301  0.5806 -0.4106  0.2852
17463THY    CA323886   5.838   0.835   2.263 -0.0851 -0.2512  0.0551
17463THY    HA323887   5.876   0.785   2.352 -1.7464  0.0304 -0.7811
17463THY    CA423888   5.704   0.812   2.226 -0.3319 -0.6215  0.2152
17463THY    HA423889   5.651   0.741   2.290  3.1657  2.1900 -0.1368
17463THY    CA523890   5.656   0.870   2.110  1.0875 -0.4581  1.2803
17463THY    CM123891   5.511   0.850   2.075  0.8176 -0.1339 -0.0445
17463THY    HM123892   5.442   0.912   2.133 -0.3129 -0.1869 -1.2111
17463THY    HM223893   5.474   0.748   2.091 -1.7475  0.1898  0.8472
17463THY    HM323894   5.500   0.873   1.969  0.7582 -0.0450  0.3340
17463THY    CA623895   5.733   0.955   2.034  0.0546  0.1597  0.7863
17463THY    HA623896   5.699   0.991   1.938 -0.6736 -1.6281 -4.0452
17464THY      O23897   1.221   2.734   7.616  0.5324 -0.3721  0.1023
17464THY     HO23898   1.235   2.755   7.522 -0.7115 -0.7562 -0.6652
17464THY    CA123899   1.325   2.784   7.683 -0.2032 -0.3775 -0.2409
17464THY    CA223900   1.340   2.781   7.822  0.1652  0.2046 -0.3430
17464THY    CP123901   1.240   2.698   7.897 -0.2024  0.7913 -0.3233
17464THY    HP123902   1.203   2.622   7.827  1.1527 -1.7575  1.2262
17464THY    CP223903   1.108   2.771   7.942  0.2367 -0.2349  0.5391
17464THY    HP223904   1.054   2.812   7.856 -0.1464  0.1539  0.8587
17464THY    HP323905   1.118   2.858   8.008  1.4186  0.5487 -0.1495
17464THY    HP423906   1.039   2.694   7.980 -0.3077 -1.7994  0.2133
17464THY    CP323907   1.300   2.625   8.013 -0.0542  0.4728 -0.3092
17464THY    HP523908   1.400   2.585   7.991  0.1358 -0.0223  0.4183
17464THY    HP623909   1.232   2.545   8.044 -0.6050  0.3766  0.1133
17464THY    HP723910   1.319   2.689   8.100  0.0703  0.6355 -0.5694
17464THY    CA323911   1.444   2.850   7.879  0.2260 -0.3237 -0.2368
17464THY    HA323912   1.462   2.836   7.985  0.2127 -0.0817  1.3594
17464THY    CA423913   1.533   2.928   7.809  0.1916 -0.1745  0.0995
17464THY    HA423914   1.614   2.981   7.859  0.5427  0.8420 -1.3642
17464THY    CA523915   1.513   2.936   7.673 -0.2776  0.0919  0.3950
17464THY    CM123916   1.615   3.016   7.585  0.8832 -0.1401  0.0275
17464THY    HM123917   1.719   3.007   7.619  0.6937  0.1108 -1.5939
17464THY    HM223918   1.600   3.124   7.588  2.2254 -1.2995  0.2878
17464THY    HM323919   1.595   2.978   7.484 -1.6803  0.6719 -1.0117
17464THY    CA623920   1.416   2.857   7.611 -0.3430 -0.0773 -0.0017
17464THY    HA623921   1.408   2.851   7.503 -2.1603  0.0411 -0.2861
17465THY      O23922   1.967   5.151   7.749 -0.8052  0.7485 -0.0101
17465THY     HO23923   1.873   5.169   7.735  0.0144 -3.0603  2.3640
17465THY    CA123924   2.024   5.278   7.761  0.0745 -0.6128 -0.2365
17465THY    CA223925   2.157   5.310   7.788  0.1192  0.4452 -0.1496
17465THY    CP123926   2.255   5.192   7.786 -0.2647 -0.0147  0.0213
17465THY    HP123927   2.216   5.095   7.751 -0.8021  2.6253 -0.8109
17465THY    CP223928   2.285   5.154   7.938 -0.2779  0.1763  0.8749
17465THY    HP223929   2.326   5.238   7.995  1.0704 -2.0212  1.7848
17465THY    HP323930   2.345   5.063   7.951 -1.2671 -0.4304  0.1072
17465THY    HP423931   2.193   5.120   7.988 -0.2039  2.4745  3.6639
17465THY    CP323932   2.386   5.214   7.705  0.2042 -0.0089  0.1502
17465THY    HP523933   2.427   5.315   7.715 -0.1584  0.4218  0.2574
17465THY    HP623934   2.367   5.212   7.597 -1.0013  0.1583 -2.8710
17465THY    HP723935   2.463   5.139   7.724 -0.4051  0.1360 -0.4452
17465THY    CA323936   2.202   5.446   7.796  0.0797 -0.1834 -0.4307
17465THY    HA323937   2.304   5.462   7.831 -0.8905  2.4202  0.6466
17465THY    CA423938   2.117   5.553   7.771 -0.1017  0.4765  0.5631
17465THY    HA423939   2.156   5.654   7.763 -0.2369  0.6334  0.6278
17465THY    CA523940   1.983   5.519   7.743  0.2769  0.1252 -0.4466
17465THY    CM123941   1.870   5.621   7.731 -0.1824  0.2212 -0.0917
17465THY    HM123942   1.807   5.618   7.820  1.6141  1.5454 -0.4455
17465THY    HM223943   1.817   5.602   7.638  2.0789 -1.8921  2.9307
17465THY    HM323944   1.903   5.725   7.740  0.6891 -0.4130 -0.3009
17465THY    CA623945   1.937   5.388   7.741 -0.0736  0.2088  0.8125
17465THY    HA623946   1.833   5.363   7.722 -0.0538 -0.1870  1.0298
17466THY      O23947   7.308   3.756   6.704  0.4021  0.1907  0.2280
17466THY     HO23948   7.402   3.779   6.702  0.4584  0.7107  0.0464
17466THY    CA123949   7.245   3.877   6.715 -0.9737  0.8060  0.5091
17466THY    CA223950   7.108   3.890   6.683  0.1929 -0.0157 -0.2876
17466THY    CP123951   7.015   3.775   6.646 -0.0027 -0.4019  0.1553
17466THY    HP123952   7.065   3.680   6.670  2.1666 -1.5010  0.9480
17466THY    CP223953   6.999   3.778   6.493 -0.8547  0.0414 -0.0823
17466THY    HP223954   6.929   3.700   6.459  0.0239 -1.2311 -0.3349
17466THY    HP323955   7.094   3.773   6.439 -1.3043 -0.8810  1.0190
17466THY    HP423956   6.942   3.866   6.461  0.3234  0.8353  0.9896
17466THY    CP323957   6.872   3.783   6.717 -0.3453  0.1533 -0.0055
17466THY    HP523958   6.822   3.695   6.675  0.7379  1.4958 -1.3226
17466THY    HP623959   6.819   3.874   6.689  1.3357 -1.6241  0.4784
17466THY    HP723960   6.881   3.780   6.827 -1.6938  0.2539 -2.4174
17466THY    CA323961   7.056   4.016   6.700 -0.8652 -0.4639  0.1335
17466THY    HA323962   6.951   4.042   6.691 -0.7654 -2.6840 -0.0804
17466THY    CA423963   7.142   4.123   6.732  0.0546  0.2226  0.4003
17466THY    HA423964   7.085   4.211   6.758 -1.6913 -0.0304 -0.6025
17466THY    CA523965   7.278   4.113   6.745  0.2151 -0.0998 -0.0696
17466THY    CM123966   7.368   4.232   6.754  0.6048  0.1119  0.0207
17466THY    HM123967   7.364   4.284   6.658 -0.4196 -0.1056 -0.4507
17466THY    HM223968   7.472   4.209   6.783  0.6438 -0.1574 -0.1445
17466THY    HM323969   7.336   4.299   6.834  1.2084  1.4469 -1.2220
17466THY    CA623970   7.331   3.985   6.739 -0.1999 -0.0067  0.4740
17466THY    HA623971   7.439   3.972   6.741 -0.2832 -2.4098 -1.2840
17467THY      O23972   0.912   2.257   2.500 -0.0115 -0.3813 -0.4254
17467THY     HO23973   0.958   2.210   2.429 -0.7445  0.3028 -2.3055
17467THY    CA123974   0.889   2.174   2.604 -0.4081 -0.7235 -0.2818
17467THY    CA223975   0.760   2.174   2.671 -0.2665 -0.6517 -0.0646
17467THY    CP123976   0.645   2.251   2.619  0.0215 -0.3595 -0.0750
17467THY    HP123977   0.670   2.309   2.529  0.4204  0.2411  0.7106
17467THY    CP223978   0.596   2.350   2.727 -0.2208 -0.0511  0.0960
17467THY    HP223979   0.548   2.306   2.815  1.6488  0.5356 -0.8747
17467THY    HP323980   0.520   2.406   2.672  2.3976 -2.2832  1.7180
17467THY    HP423981   0.675   2.418   2.761 -2.1676  2.3530  1.3150
17467THY    CP323982   0.537   2.158   2.576  0.2445 -0.2971  0.2157
17467THY    HP523983   0.479   2.199   2.492  2.0779 -0.8972  1.7695
17467THY    HP623984   0.471   2.135   2.660 -0.9168 -1.0395  0.7742
17467THY    HP723985   0.579   2.063   2.542  0.1349 -0.5561  0.2585
17467THY    CA323986   0.761   2.100   2.794  0.6073 -0.0960  1.0220
17467THY    HA323987   0.667   2.094   2.849  1.0829  0.5549 -1.0214
17467THY    CA423988   0.875   2.033   2.853  0.7363  0.0989 -0.2303
17467THY    HA423989   0.864   1.960   2.933 -0.2728  0.4547  0.2850
17467THY    CA523990   0.990   2.023   2.775 -0.5136 -0.1792  0.3478
17467THY    CM123991   1.103   1.928   2.806 -1.0024 -0.2392 -0.1622
17467THY    HM123992   1.181   1.999   2.838 -0.4315 -1.8299 -0.0511
17467THY    HM223993   1.127   1.863   2.722  0.8351  0.7450 -0.8283
17467THY    HM323994   1.080   1.864   2.892  1.1144  0.4359 -0.1057
17467THY    CA623995   0.995   2.093   2.652  0.1009 -0.3551 -0.0985
17467THY    HA623996   1.093   2.092   2.606 -0.2914 -1.2389  1.0682
17468THY      O23997   2.049   8.439   3.425 -0.5586  0.0970 -0.0321
17468THY     HO23998   2.103   8.486   3.359  1.4971 -0.0739 -2.4458
17468THY    CA123999   2.040   8.515   3.533 -1.2429 -1.0029  0.3417
17468THY    CA224000   2.016   8.461   3.669  0.6249  0.7863 -0.6586
17468THY    CP124001   2.016   8.311   3.692  0.0933  0.2771 -0.0890
17468THY    HP124002   1.954   8.272   3.611 -1.5973  2.0596 -1.3045
17468THY    CP224003   1.934   8.254   3.807  0.6435 -0.3924 -0.6968
17468THY    HP224004   1.826   8.261   3.789  0.5322 -0.9103 -2.9316
17468THY    HP324005   1.955   8.281   3.911 -1.4483  0.1923 -1.0854
17468THY    HP424006   1.951   8.145   3.807  0.5857 -2.0282 -0.7229
17468THY    CP324007   2.148   8.235   3.669  0.0465  0.2404  0.2391
17468THY    HP524008   2.122   8.131   3.643 -1.4368 -3.5848  1.3846
17468THY    HP624009   2.219   8.245   3.752  0.3868 -0.1462  1.1947
17468THY    HP724010   2.198   8.276   3.580  1.7299  1.6906  1.5204
17468THY    CA324011   1.980   8.558   3.763  0.2653 -0.9099  0.0088
17468THY    HA324012   1.956   8.521   3.863  2.3355 -0.2256  0.3695
17468THY    CA424013   1.978   8.695   3.733 -0.0385 -0.4394 -0.5604
17468THY    HA424014   1.938   8.764   3.806 -2.1487 -0.8977 -1.2162
17468THY    CA524015   2.008   8.741   3.606 -0.2067  1.1351  0.0447
17468THY    CM124016   1.997   8.886   3.576 -0.5305 -0.0320 -0.1960
17468THY    HM124017   2.079   8.933   3.520 -0.4234 -0.3406 -0.7552
17468THY    HM224018   1.979   8.946   3.667  0.1986 -1.8581  3.0450
17468THY    HM324019   1.910   8.914   3.515 -0.2733 -0.9850 -1.4017
17468THY    CA624020   2.041   8.651   3.506 -0.1427  0.1594 -0.1270
17468THY    HA624021   2.055   8.693   3.407  0.0860  0.4941  0.6009
17469THY      O24022   7.419   1.942   4.732 -0.3828 -0.1966  0.0995
17469THY     HO24023   7.465   2.016   4.775 -0.4647  0.4558 -0.2178
17469THY    CA124024   7.425   1.832   4.810  0.1143 -0.4607  0.0888
17469THY    CA224025   7.345   1.718   4.793  0.4009  0.0592 -0.0248
17469THY    CP124026   7.244   1.728   4.678  0.4008 -0.0749  0.4889
17469THY    HP124027   7.282   1.801   4.606  0.9477 -1.4432 -1.0787
17469THY    CP224028   7.106   1.773   4.740  0.4975  0.3559 -0.3016
17469THY    HP224029   7.124   1.874   4.778 -0.9999 -0.5727  0.3505
17469THY    HP324030   7.078   1.702   4.819  1.7682 -0.5809 -1.9077
17469THY    HP424031   7.023   1.772   4.668 -0.6535  1.6036  0.9587
17469THY    CP324032   7.230   1.600   4.603  0.1489  0.4287  0.0154
17469THY    HP524033   7.326   1.556   4.572 -0.2478 -1.0388  0.1297
17469THY    HP624034   7.180   1.622   4.508 -0.3760  1.3357  3.1602
17469THY    HP724035   7.169   1.525   4.654 -0.4168 -2.3629 -1.6113
17469THY    CA324036   7.354   1.607   4.887 -0.3331  0.2913 -0.4561
17469THY    HA324037   7.294   1.517   4.874 -1.4585  0.5764  0.2378
17469THY    CA424038   7.446   1.613   4.991  0.0783 -0.8504  0.2914
17469THY    HA424039   7.443   1.526   5.056  2.9264 -1.2245 -0.1738
17469THY    CA524040   7.531   1.724   5.007  0.9080 -0.3272 -0.2258
17469THY    CM124041   7.639   1.732   5.104 -0.2377  0.2937 -0.7173
17469THY    HM124042   7.715   1.810   5.091  0.3871 -0.6233 -1.4574
17469THY    HM224043   7.693   1.637   5.112 -0.0262 -0.4988 -0.6707
17469THY    HM324044   7.597   1.751   5.204  1.2633  0.5863  1.3722
17469THY    CA624045   7.521   1.833   4.916 -0.0660  0.3984  0.3225
17469THY    HA624046   7.599   1.909   4.924 -0.2523  0.1359  0.5414
17470THY      O24047   0.663   6.868   6.836  0.3736  0.1309 -0.1444
17470THY     HO24048   0.714   6.818   6.770 -1.7794 -1.8383  0.0934
17470THY    CA124049   0.583   6.950   6.768  0.3557 -0.7110  0.1342
17470THY    CA224050   0.499   7.043   6.833 -1.1406  1.0244  0.4414
17470THY    CP124051   0.500   7.051   6.989 -0.3267  0.2488  0.5150
17470THY    HP124052   0.603   7.043   7.024 -0.8763  2.1521  1.0876
17470THY    CP224053   0.402   6.943   7.042  0.2800 -0.2567  0.1498
17470THY    HP224054   0.299   6.980   7.039 -0.3341 -0.2881 -1.4599
17470THY    HP324055   0.423   6.924   7.148  1.2867  0.0973  2.8068
17470THY    HP424056   0.406   6.855   6.977  2.0917 -0.0770  0.0608
17470THY    CP324057   0.462   7.185   7.046 -0.6541  0.2336 -0.6126
17470THY    HP524058   0.466   7.174   7.154  0.6123  0.3305  0.5013
17470THY    HP624059   0.363   7.226   7.022 -0.2144 -0.8561 -0.1252
17470THY    HP724060   0.523   7.274   7.025 -2.2881 -0.4094  0.4131
17470THY    CA324061   0.430   7.126   6.743  0.4023 -0.4027  0.2361
17470THY    HA324062   0.354   7.190   6.787 -0.2125  2.0860 -1.9999
17470THY    CA424063   0.441   7.124   6.605 -0.1901 -0.3446  0.3042
17470THY    HA424064   0.384   7.198   6.551 -0.9921  1.8968  1.4331
17470THY    CA524065   0.522   7.022   6.551 -0.1163 -0.2394 -0.0029
17470THY    CM124066   0.535   7.019   6.399  0.7002  0.7393  0.2435
17470THY    HM124067   0.451   6.958   6.365 -0.4432  0.7424  1.7548
17470THY    HM224068   0.626   6.966   6.371  0.5550 -1.1841  0.9594
17470THY    HM324069   0.536   7.119   6.354 -1.8869  0.3784  0.1777
17470THY    CA624070   0.585   6.930   6.633 -0.5467  0.2698 -0.1438
17470THY    HA624071   0.640   6.845   6.593  1.5493  1.6998  0.4641
17471THY      O24072   1.079   6.433   5.649  0.0680 -0.1081  0.1421
17471THY     HO24073   1.103   6.523   5.677  2.0502  1.0799 -0.6950
17471THY    CA124074   0.980   6.449   5.562  0.0353  0.5959  0.4771
17471THY    CA224075   0.874   6.361   5.541  0.3542  0.0758 -0.5725
17471THY    CP124076   0.851   6.243   5.636 -0.0331  0.4408  0.7543
17471THY    HP124077   0.939   6.234   5.701 -0.2147  0.9138  2.1737
17471THY    CP224078   0.840   6.115   5.556 -0.1822 -0.1003 -0.5275
17471THY    HP224079   0.803   6.034   5.620 -0.4162  0.5652  0.0863
17471THY    HP324080   0.934   6.095   5.504  0.4854  0.8336  0.0565
17471THY    HP424081   0.758   6.129   5.484  1.0557 -1.2672  1.1910
17471THY    CP324082   0.737   6.263   5.735  0.2769  0.5187  0.3145
17471THY    HP524083   0.751   6.357   5.789 -1.7050  0.8125  0.5024
17471THY    HP624084   0.732   6.183   5.810  0.3630 -2.6866 -2.9560
17471THY    HP724085   0.641   6.272   5.683  0.1595  0.8532  1.0833
17471THY    CA324086   0.773   6.385   5.443 -0.8689  0.0741  0.0163
17471THY    HA324087   0.686   6.321   5.430  0.1136 -1.1113 -1.1448
17471THY    CA424088   0.781   6.510   5.370 -0.5233  0.7507 -0.2369
17471THY    HA424089   0.713   6.527   5.287  0.0200 -0.2050 -2.3929
17471THY    CA524090   0.878   6.599   5.401 -0.2411  0.0983 -0.3781
17471THY    CM124091   0.876   6.729   5.331 -0.0637  0.2860 -0.3289
17471THY    HM124092   0.882   6.718   5.222  1.3068  0.3401 -0.3619
17471THY    HM224093   0.960   6.789   5.369 -1.1454  1.2898  0.5888
17471THY    HM324094   0.789   6.788   5.362  1.5094  1.6155  1.4267
17471THY    CA624095   0.980   6.567   5.489 -0.1896 -0.3076 -0.2573
17471THY    HA624096   1.061   6.637   5.506 -0.3708 -1.2541  0.1972
17472THY      O24097   7.946   2.681   7.342  0.1042  0.0660  0.1299
17472THY     HO24098   7.975   2.591   7.320 -0.9305 -0.3521 -0.1091
17472THY    CA124099   8.046   2.749   7.396 -0.0670 -0.1193 -0.3826
17472THY    CA224100   8.018   2.853   7.486 -0.0083 -0.2730 -0.4011
17472THY    CP124101   7.874   2.880   7.531 -0.0226  0.3680  0.0994
17472THY    HP124102   7.793   2.827   7.479 -2.8703  3.2698  1.2974
17472THY    CP224103   7.838   3.021   7.534 -0.0763 -0.6197  0.4981
17472THY    HP224104   7.879   3.077   7.619  1.9948 -1.8029  0.9029
17472THY    HP324105   7.732   3.048   7.533  0.0424 -0.1244  1.0180
17472THY    HP424106   7.864   3.059   7.435  0.7750 -1.1534 -1.3666
17472THY    CP324107   7.858   2.818   7.672 -0.0944 -0.2361  0.3564
17472THY    HP524108   7.883   2.712   7.666 -3.3253  1.6849 -0.6672
17472THY    HP624109   7.762   2.824   7.724  1.2858  2.7385 -1.3853
17472THY    HP724110   7.927   2.864   7.743  2.6420 -3.2287  1.2779
17472THY    CA324111   8.136   2.936   7.536  0.1027 -0.8880  1.0860
17472THY    HA324112   8.118   3.021   7.600  1.8364 -0.2562  1.0071
17472THY    CA424113   8.264   2.893   7.489 -0.0737  0.2995 -0.0235
17472THY    HA424114   8.349   2.946   7.531  1.3585 -0.1957 -1.8117
17472THY    CA524115   8.278   2.790   7.398 -0.1051 -0.0457 -0.4788
17472THY    CM124116   8.419   2.753   7.356  0.0069  0.4765 -0.0035
17472THY    HM124117   8.426   2.656   7.306 -1.7169  0.2757 -0.0512
17472THY    HM224118   8.482   2.731   7.443 -0.4757  0.7991 -0.1108
17472THY    HM324119   8.475   2.831   7.302  2.6732  1.7183 -0.9355
17472THY    CA624120   8.174   2.721   7.350  0.4315 -0.1410  0.2491
17472THY    HA624121   8.194   2.654   7.268  0.5334 -1.3191  1.6631
17473THY      O24122   0.574   5.994   4.488 -0.6478 -0.8988  0.3236
17473THY     HO24123   0.594   5.921   4.550  2.5091 -1.5073  0.5338
17473THY    CA124124   0.517   5.939   4.379 -0.1404 -0.3449  0.6290
17473THY    CA224125   0.392   5.984   4.339 -0.4861 -0.0181 -0.3843
17473THY    CP124126   0.309   6.093   4.407  0.0494  0.2995  0.2376
17473THY    HP124127   0.356   6.116   4.503  2.4899 -1.1308  1.6508
17473THY    CP224128   0.162   6.060   4.421  0.2988 -0.3385 -0.4551
17473THY    HP224129   0.154   5.961   4.467  1.7970  3.8516  1.1648
17473THY    HP324130   0.112   6.073   4.324 -0.6015  0.4432  3.1157
17473THY    HP424131   0.130   6.139   4.491  1.3970  0.1993 -0.4691
17473THY    CP324132   0.329   6.216   4.324  0.6900  0.8656  0.2070
17473THY    HP524133   0.276   6.304   4.364 -0.2296 -2.2324  1.1724
17473THY    HP624134   0.292   6.202   4.222 -1.1824  1.6747 -1.2648
17473THY    HP724135   0.437   6.234   4.321  0.8695  0.2877 -0.9047
17473THY    CA324136   0.336   5.916   4.227 -0.1132  0.2133 -0.3332
17473THY    HA324137   0.238   5.943   4.190  1.0107 -2.1587  0.8091
17473THY    CA424138   0.413   5.812   4.163  0.3707  0.4492  0.2858
17473THY    HA424139   0.383   5.760   4.072  3.5618 -0.8038  0.3905
17473THY    CA524140   0.544   5.774   4.210 -0.1315  0.1590  0.3322
17473THY    CM124141   0.627   5.663   4.148  0.4059  0.5176  0.0402
17473THY    HM124142   0.597   5.657   4.043  1.1412  0.3285 -0.3809
17473THY    HM224143   0.610   5.568   4.200  2.7873 -0.4201 -0.9832
17473THY    HM324144   0.734   5.684   4.153  0.1812  0.7883  1.1797
17473THY    CA624145   0.587   5.831   4.328 -0.4976 -0.2959  0.0483
17473THY    HA624146   0.676   5.800   4.381 -0.2057 -0.5589  0.4328
17474THY      O24147   7.101   3.047   5.363 -0.5260  0.0794 -0.3899
17474THY     HO24148   7.192   3.025   5.336  0.4646  2.0362  0.9522
17474THY    CA124149   7.081   2.956   5.459 -0.7478  0.2705  0.8217
17474THY    CA224150   6.978   2.966   5.553  0.8729 -0.1678  0.0865
17474THY    CP124151   6.891   3.099   5.552 -0.1081  0.3267 -0.2328
17474THY    HP124152   6.939   3.169   5.484  0.7392  0.0933 -1.0177
17474THY    CP224153   6.883   3.167   5.685 -0.1793 -0.3792  0.0928
17474THY    HP224154   6.967   3.139   5.750 -0.0673 -0.2507  0.7172
17474THY    HP324155   6.797   3.132   5.744  0.6819  0.5817 -0.4956
17474THY    HP424156   6.881   3.276   5.675  1.2958  1.2650  0.3205
17474THY    CP324157   6.756   3.082   5.487 -0.2376 -0.6068  0.6272
17474THY    HP524158   6.767   3.020   5.398 -0.2467  0.5928 -1.1802
17474THY    HP624159   6.715   3.177   5.453  0.4044 -1.2682  0.6756
17474THY    HP724160   6.688   3.035   5.559  1.0292  0.0285 -0.3196
17474THY    CA324161   6.952   2.855   5.642 -0.7585 -0.0993 -0.2031
17474THY    HA324162   6.867   2.860   5.710  0.5444  1.5913 -0.2452
17474THY    CA424163   7.041   2.748   5.641 -0.0105  0.0318 -0.1086
17474THY    HA424164   7.013   2.660   5.697 -1.9087  0.4136  0.6999
17474THY    CA524165   7.159   2.751   5.564 -0.3504  0.0567 -0.2041
17474THY    CM124166   7.261   2.641   5.584  0.5082 -0.0221 -0.4831
17474THY    HM124167   7.250   2.591   5.682  0.9625  0.8550  1.0918
17474THY    HM224168   7.364   2.679   5.579 -0.7359 -2.4874  3.0547
17474THY    HM324169   7.248   2.572   5.500 -0.3708 -0.8323  0.6405
17474THY    CA624170   7.173   2.852   5.468 -0.5623 -0.2181 -0.1346
17474THY    HA624171   7.256   2.860   5.398 -1.8018 -1.7825 -0.5839
17475THY      O24172   6.379   8.731   3.636 -0.2647 -0.3004  0.2588
17475THY     HO24173   6.385   8.680   3.554  1.3620  0.8055 -1.4600
17475THY    CA124174   6.429   8.655   3.735  0.5298  0.1571  0.0541
17475THY    CA224175   6.423   8.698   3.874 -0.4503 -0.7762 -0.5355
17475THY    CP124176   6.385   8.840   3.905  1.0423  0.9193  0.5239
17475THY    HP124177   6.421   8.902   3.822  0.6872 -0.3630 -0.9322
17475THY    CP224178   6.456   8.887   4.033 -0.1328 -0.7406 -0.6752
17475THY    HP224179   6.455   8.997   4.043 -2.0225  0.2132 -0.7488
17475THY    HP324180   6.564   8.867   4.031  0.0548  0.1666  0.1208
17475THY    HP424181   6.418   8.844   4.126 -1.2186 -1.0246 -0.3478
17475THY    CP324182   6.236   8.864   3.910  0.2918  0.3841 -0.0547
17475THY    HP524183   6.184   8.852   3.814 -1.7422  1.3184  0.7114
17475THY    HP624184   6.217   8.960   3.961 -1.9693 -0.4608  0.0232
17475THY    HP724185   6.187   8.788   3.971  0.5818  1.0161  0.2624
17475THY    CA324186   6.461   8.599   3.970 -0.7298 -0.7348 -1.3390
17475THY    HA324187   6.466   8.631   4.073 -1.3878 -0.7691 -1.1086
17475THY    CA424188   6.495   8.472   3.928 -0.5447 -0.5257 -0.9825
17475THY    HA424189   6.524   8.397   4.001  0.5002  0.4413  0.3087
17475THY    CA524190   6.509   8.434   3.798 -0.7605  0.0771 -0.0073
17475THY    CM124191   6.547   8.291   3.766  0.3190 -0.5560  0.6220
17475THY    HM124192   6.610   8.249   3.845 -1.2613  3.1519  4.4677
17475THY    HM224193   6.607   8.299   3.674  1.9768  0.5367  1.3393
17475THY    HM324194   6.460   8.227   3.744  1.9844 -0.4653 -1.8120
17475THY    CA624195   6.473   8.526   3.699 -0.5912  0.2406  0.0931
17475THY    HA624196   6.464   8.487   3.599 -1.1929  1.2271 -2.5165
17476THY      O24197   2.252   7.093   4.461  0.2856 -0.2253  0.3635
17476THY     HO24198   2.279   7.186   4.448  2.6763 -0.1904 -0.2536
17476THY    CA124199   2.159   7.078   4.555 -0.0951  0.0286 -0.6852
17476THY    CA224200   2.089   6.952   4.570  0.1102 -0.1082  0.5811
17476THY    CP124201   2.122   6.843   4.476  0.0734 -0.1985 -0.4185
17476THY    HP124202   2.227   6.852   4.447 -0.1136 -0.2737  2.2104
17476THY    CP224203   2.036   6.835   4.343 -0.2487 -0.1137  0.4387
17476THY    HP224204   2.037   6.733   4.303 -0.0089  1.4652 -0.2004
17476THY    HP324205   2.063   6.919   4.277  0.7815  2.4621  2.2380
17476THY    HP424206   1.939   6.861   4.387 -0.3280  0.0973 -0.1966
17476THY    CP324207   2.101   6.703   4.539  0.1352  0.6395  0.0086
17476THY    HP524208   2.137   6.624   4.471  0.4537  2.1439 -1.2047
17476THY    HP624209   1.995   6.682   4.554  0.6233  3.0850 -1.0830
17476THY    HP724210   2.151   6.692   4.636  0.7932  0.2385 -0.7086
17476THY    CA324211   1.993   6.936   4.679  0.2957 -0.2308  0.0496
17476THY    HA324212   1.954   6.836   4.691  0.2560 -0.3096  0.0552
17476THY    CA424213   1.948   7.053   4.747 -0.5223 -0.6795  0.9144
17476THY    HA424214   1.867   7.046   4.819 -0.5879 -0.3686  3.6955
17476THY    CA524215   2.024   7.176   4.742  0.3224 -0.2446  0.2379
17476THY    CM124216   1.991   7.298   4.817  0.2583  0.0146 -0.3881
17476THY    HM124217   2.038   7.379   4.760  2.1849  1.1334 -0.6694
17476THY    HM224218   2.029   7.286   4.919 -3.7725  1.7958  0.3467
17476THY    HM324219   1.882   7.312   4.828 -0.2323 -1.0341 -2.8526
17476THY    CA624220   2.126   7.184   4.640  0.1394  0.3209  0.2102
17476THY    HA624221   2.179   7.278   4.624 -1.6156  1.1043  1.3924
17477THY      O24222   2.319   7.079   7.247  0.6455  0.3557  0.6511
17477THY     HO24223   2.253   7.118   7.187 -0.8778  1.6527  0.1454
17477THY    CA124224   2.410   7.176   7.280  0.8052 -0.0832 -0.3640
17477THY    CA224225   2.508   7.158   7.372  0.1405 -0.2407  0.6617
17477THY    CP124226   2.523   7.025   7.443 -0.0740 -0.0989 -0.0334
17477THY    HP124227   2.468   6.948   7.387  1.0841 -0.4545 -0.6282
17477THY    CP224228   2.473   7.040   7.583  0.0876  0.3215  0.2521
17477THY    HP224229   2.519   7.129   7.627 -0.9544  0.7281  0.6041
17477THY    HP324230   2.495   6.956   7.650 -0.8532 -0.1032 -0.3509
17477THY    HP424231   2.364   7.058   7.587  0.0600  1.9649 -0.1237
17477THY    CP324232   2.665   6.980   7.443  0.0667  0.4615 -0.0819
17477THY    HP524233   2.681   6.883   7.492  0.0998 -0.3255 -0.4868
17477THY    HP624234   2.722   7.046   7.509  1.6234 -2.7013  2.0091
17477THY    HP724235   2.719   6.985   7.347 -0.7860  0.0334  1.1192
17477THY    CA324236   2.599   7.264   7.406 -0.2307  0.1914 -0.0916
17477THY    HA324237   2.674   7.265   7.484 -1.0877  1.0382  0.5876
17477THY    CA424238   2.579   7.386   7.346 -0.6406  0.6299  0.0826
17477THY    HA424239   2.641   7.473   7.365  0.2230 -0.6784 -0.2271
17477THY    CA524240   2.486   7.395   7.243 -0.1069 -0.8297  0.0548
17477THY    CM124241   2.470   7.521   7.160  0.5981  0.3156 -0.8498
17477THY    HM124242   2.381   7.575   7.193 -0.1402 -0.5812 -1.4886
17477THY    HM224243   2.471   7.498   7.053  1.7343 -1.2570  4.9747
17477THY    HM324244   2.556   7.589   7.170  0.7706  0.1241 -1.0381
17477THY    CA624245   2.389   7.299   7.223  0.3259 -0.2192 -0.1738
17477THY    HA624246   2.308   7.308   7.151 -0.6938  0.5729 -2.3185
17478THY      O24247   6.619   1.222   3.360 -0.6298  0.2841  0.1128
17478THY     HO24248   6.609   1.305   3.408 -0.0100  0.6657 -0.0293
17478THY    CA124249   6.645   1.275   3.236  0.2572 -0.0484 -0.1406
17478THY    CA224250   6.671   1.196   3.120 -0.1105 -0.4034  0.8085
17478THY    CP124251   6.653   1.044   3.126 -0.1484  0.8740 -0.1831
17478THY    HP124252   6.646   1.001   3.227 -2.5603  0.7549 -0.1804
17478THY    CP224253   6.770   0.966   3.067  0.4931  0.0472  0.9170
17478THY    HP224254   6.865   1.019   3.085  2.0070 -0.3677 -1.4991
17478THY    HP324255   6.775   0.955   2.958 -2.4481 -0.0119 -0.6487
17478THY    HP424256   6.784   0.876   3.128 -1.1526 -0.9535 -0.0780
17478THY    CP324257   6.528   0.997   3.051  0.1414  0.6829  0.7969
17478THY    HP524258   6.496   0.897   3.082 -1.4015 -0.5919  0.8677
17478THY    HP624259   6.534   0.998   2.942  2.2864  0.7584  1.4612
17478THY    HP724260   6.452   1.064   3.093  0.2854  1.3802  0.5328
17478THY    CA324261   6.696   1.268   2.996  0.5100 -0.5944  0.2548
17478THY    HA324262   6.712   1.227   2.896  1.0741 -1.4462  2.3799
17478THY    CA424263   6.711   1.409   2.994 -0.6673 -0.2538 -0.1362
17478THY    HA424264   6.730   1.460   2.900 -0.9122 -0.1854  0.0844
17478THY    CA524265   6.697   1.480   3.113 -0.1268 -0.3841 -0.2308
17478THY    CM124266   6.721   1.625   3.112 -0.0610  0.4111 -0.5930
17478THY    HM124267   6.823   1.657   3.136 -0.0105  0.4123 -0.7520
17478THY    HM224268   6.663   1.663   3.196  0.6155  0.6436 -0.0479
17478THY    HM324269   6.685   1.672   3.020 -0.3711  0.6332 -0.3933
17478THY    CA624270   6.665   1.410   3.233 -0.0381  0.1530 -0.9962
17478THY    HA624271   6.670   1.462   3.328  0.2260 -0.8651  0.9209
17479THY      O24272   8.233   5.707   3.328 -0.0778 -0.1160  0.3827
17479THY     HO24273   8.240   5.802   3.350 -1.2117  3.6357 -0.2358
17479THY    CA124274   8.221   5.693   3.192  0.9162 -0.8544 -0.1218
17479THY    CA224275   8.206   5.563   3.139  0.2068  0.4304 -0.6254
17479THY    CP124276   8.197   5.439   3.231  0.3960 -0.4059  0.9378
17479THY    HP124277   8.213   5.469   3.335 -0.6116  0.3695 -1.0795
17479THY    CP224278   8.294   5.327   3.193  0.3826  0.3621  0.4662
17479THY    HP224279   8.387   5.380   3.169  0.7980  0.5833 -0.1482
17479THY    HP324280   8.256   5.272   3.107 -0.0273  0.7274  0.1704
17479THY    HP424281   8.313   5.249   3.268  1.5136 -1.4555 -1.0931
17479THY    CP324282   8.053   5.393   3.228 -0.2460 -0.4448 -0.3172
17479THY    HP524283   7.984   5.471   3.263  0.2412  2.0367 -0.9000
17479THY    HP624284   8.046   5.295   3.278  1.3795 -0.3357 -0.4134
17479THY    HP724285   8.022   5.364   3.127 -2.0319 -0.0262  0.0214
17479THY    CA324286   8.218   5.551   3.003  0.6665 -0.6315  0.2600
17479THY    HA324287   8.200   5.454   2.958  1.7120  0.1578 -0.3275
17479THY    CA424288   8.238   5.663   2.929  0.2912  0.6572  0.6323
17479THY    HA424289   8.240   5.643   2.822  0.0386  0.1808  2.8963
17479THY    CA524290   8.247   5.796   2.981 -0.0856  0.0454  0.4444
17479THY    CM124291   8.266   5.912   2.894  0.0496  0.5505 -0.4021
17479THY    HM124292   8.248   5.902   2.786  2.1396  0.0548  0.6198
17479THY    HM224293   8.366   5.951   2.917  0.7520 -0.9690 -1.1966
17479THY    HM324294   8.196   5.989   2.929 -0.6896  2.7362 -1.9723
17479THY    CA624295   8.237   5.807   3.120 -0.2147  0.4275 -0.1353
17479THY    HA624296   8.259   5.905   3.161 -0.9230 -0.0370  0.2319
17480THY      O24297   3.209   2.433   3.069 -0.0248 -0.1264 -0.3213
17480THY     HO24298   3.211   2.529   3.058 -2.0696  1.2404 -0.0564
17480THY    CA124299   3.100   2.392   2.991 -0.1609  0.4874 -0.1454
17480THY    CA224300   3.078   2.255   2.957 -1.4782  0.0865 -0.6206
17480THY    CP124301   3.184   2.152   3.013 -0.5323 -0.2512  0.8815
17480THY    HP124302   3.281   2.199   3.033 -0.4270 -0.9510  0.9749
17480THY    CP224303   3.206   2.020   2.926 -0.5833  0.0546 -0.4490
17480THY    HP224304   3.107   1.977   2.912 -1.0617  1.9840 -0.0854
17480THY    HP324305   3.272   1.946   2.973 -0.8244  2.3982  0.7308
17480THY    HP424306   3.246   2.052   2.829  1.4267  0.5880 -1.1963
17480THY    CP324307   3.140   2.114   3.147  0.5395  0.5366 -0.1992
17480THY    HP524308   3.153   2.203   3.210 -0.9296  0.5073  0.0487
17480THY    HP624309   3.192   2.023   3.180 -0.6110  0.5958 -0.8545
17480THY    HP724310   3.034   2.087   3.150  0.0467 -1.9379  1.1607
17480THY    CA324311   2.967   2.220   2.878  0.3580 -0.1758 -0.5810
17480THY    HA324312   2.944   2.114   2.864  2.2458 -0.0022 -1.0440
17480THY    CA424313   2.880   2.321   2.829 -0.6803 -0.3567  0.6684
17480THY    HA424314   2.799   2.289   2.764 -0.5164 -0.1057 -0.2822
17480THY    CA524315   2.901   2.459   2.861  0.2324 -0.4487  0.0194
17480THY    CM124316   2.808   2.558   2.792 -0.2859 -0.1959 -0.9327
17480THY    HM124317   2.798   2.652   2.848 -1.2129  0.8066 -1.6106
17480THY    HM224318   2.705   2.520   2.792 -0.3424  2.1762 -0.9297
17480THY    HM324319   2.843   2.591   2.694 -1.2134 -0.5167 -0.8868
17480THY    CA624320   3.010   2.492   2.951 -0.5655  0.3197 -0.0378
17480THY    HA624321   3.015   2.598   2.971 -0.6912  2.3532 -0.3595
17481THY      O24322   3.526   3.133   2.939 -0.2063 -0.0344 -0.1455
17481THY     HO24323   3.508   3.140   2.843  1.9694 -0.5308 -0.5790
17481THY    CA124324   3.660   3.151   2.934 -0.1017 -0.1255  0.5113
17481THY    CA224325   3.750   3.077   3.013 -0.2242  0.1527 -0.5301
17481THY    CP124326   3.700   2.980   3.124 -0.2429 -0.0946 -0.4326
17481THY    HP124327   3.596   2.996   3.153  0.6774  2.1993  2.3606
17481THY    CP224328   3.771   3.009   3.258 -0.9223 -0.1616 -0.4522
17481THY    HP224329   3.759   3.115   3.286  1.1806 -3.0234  0.6953
17481THY    HP324330   3.878   2.989   3.243 -0.9501 -0.7409 -0.1912
17481THY    HP424331   3.732   2.940   3.333  0.6007  0.5085 -0.6402
17481THY    CP324332   3.720   2.829   3.091 -0.4777 -0.9564  0.1904
17481THY    HP524333   3.673   2.808   2.994  1.0454 -1.3634 -1.6093
17481THY    HP624334   3.675   2.768   3.170  0.8343 -0.1449  0.2292
17481THY    HP724335   3.825   2.801   3.077  0.3218  2.2393  1.2659
17481THY    CA324336   3.892   3.088   2.989  0.1907 -0.7308 -0.1262
17481THY    HA324337   3.955   3.045   3.066  0.2764 -1.3853 -1.1966
17481THY    CA424338   3.936   3.162   2.881  0.0395  0.0559  0.0057
17481THY    HA424339   4.043   3.172   2.872 -0.0577 -0.6086  0.4917
17481THY    CA524340   3.841   3.225   2.796  0.0525 -0.0286 -0.2063
17481THY    CM124341   3.893   3.301   2.681  0.0927 -0.1389 -0.1007
17481THY    HM124342   3.876   3.252   2.585  1.2803 -0.7269  0.6004
17481THY    HM224343   3.996   3.334   2.696 -0.7917  2.3833  1.8376
17481THY    HM324344   3.831   3.392   2.677  1.2448 -1.7687  0.6740
17481THY    CA624345   3.703   3.214   2.817 -0.7461 -0.1929 -0.9115
17481THY    HA624346   3.629   3.263   2.754 -0.0059 -1.4863 -1.4100
17482THY      O24347   9.068   4.610   6.953  0.1228 -0.0365 -0.2456
17482THY     HO24348   9.087   4.568   7.039  0.4301  0.0265  0.0160
17482THY    CA124349   8.939   4.633   6.931 -0.6379  0.0223 -0.0366
17482THY    CA224350   8.890   4.734   6.846  0.0928 -0.2451  0.2593
17482THY    CP124351   8.988   4.822   6.765  0.6857  0.0439  0.0606
17482THY    HP124352   9.060   4.755   6.715  0.3679 -1.1750  0.5926
17482THY    CP224353   9.065   4.924   6.853 -0.0101  0.2456  0.0212
17482THY    HP224354   9.148   4.968   6.797 -2.2094 -0.8062  3.1593
17482THY    HP324355   9.094   4.858   6.936 -0.4005  1.2922  1.1267
17482THY    HP424356   8.997   5.000   6.892 -0.7293  1.2716 -1.1088
17482THY    CP324357   8.921   4.886   6.644 -0.3382  0.8801 -0.6540
17482THY    HP524358   8.862   4.976   6.664  1.3029  0.7022  0.5050
17482THY    HP624359   8.853   4.818   6.591  0.2110 -1.9802  0.8819
17482THY    HP724360   8.992   4.928   6.572 -0.4086  1.9260  1.3548
17482THY    CA324361   8.752   4.748   6.838  0.4893 -0.0071 -0.5224
17482THY    HA324362   8.713   4.824   6.771  3.0200 -0.2072  0.6945
17482THY    CA424363   8.665   4.663   6.908 -0.2330 -0.6847 -0.5630
17482THY    HA424364   8.557   4.673   6.906 -0.3101 -1.3891 -1.3931
17482THY    CA524365   8.725   4.564   6.993  0.5680  0.3563  0.1604
17482THY    CM124366   8.633   4.479   7.077 -0.1688 -0.2809 -0.7593
17482THY    HM124367   8.680   4.396   7.131  0.4494  1.3107  0.5816
17482THY    HM224368   8.548   4.438   7.022  0.7085  0.3158 -3.5795
17482THY    HM324369   8.585   4.540   7.154  0.4446  0.5743 -1.3412
17482THY    CA624370   8.858   4.552   6.997 -0.5017 -0.3422  0.8583
17482THY    HA624371   8.898   4.476   7.064 -2.8492  1.9760  1.5213
17483THY      O24372   2.481   4.687   3.710  0.2776  0.2031 -0.2130
17483THY     HO24373   2.425   4.645   3.642  0.4182 -1.1611  1.6546
17483THY    CA124374   2.482   4.820   3.685 -0.0653 -1.3332  0.4678
17483THY    CA224375   2.519   4.912   3.789 -0.0859  0.2488 -0.2578
17483THY    CP124376   2.577   4.863   3.922  0.4203  0.2610  0.3158
17483THY    HP124377   2.622   4.764   3.906  0.9295  0.1933  0.5516
17483THY    CP224378   2.467   4.853   4.027 -0.5030  0.6101  0.7638
17483THY    HP224379   2.434   4.952   4.061  0.2278 -1.6000  1.8488
17483THY    HP324380   2.499   4.793   4.113 -2.8299  0.2579 -1.1060
17483THY    HP424381   2.383   4.798   3.984 -0.0434 -0.3522  0.7872
17483THY    CP324382   2.696   4.948   3.967 -0.1748 -0.0453 -0.3923
17483THY    HP524383   2.764   4.893   4.034  0.1018  0.9236  1.0782
17483THY    HP624384   2.665   5.047   4.002  0.3549  0.1655 -0.2987
17483THY    HP724385   2.748   4.955   3.870 -0.4003 -0.2389 -1.2336
17483THY    CA324386   2.518   5.043   3.758 -0.0222 -0.1362 -0.6089
17483THY    HA324387   2.547   5.118   3.831  2.3339 -0.6958 -0.8763
17483THY    CA424388   2.459   5.090   3.638  0.1304  0.2976  0.1722
17483THY    HA424389   2.445   5.194   3.610 -0.5153 -2.7657 -0.6316
17483THY    CA524390   2.412   4.995   3.537 -0.6589 -0.8696  0.2540
17483THY    CM124391   2.364   5.031   3.401  0.1307 -0.5704  0.3070
17483THY    HM124392   2.336   5.137   3.401 -1.4615 -1.7429 -0.0800
17483THY    HM224393   2.279   4.971   3.369 -0.1714  0.9634 -0.1310
17483THY    HM324394   2.436   5.029   3.318  0.4401 -0.3182 -2.3446
17483THY    CA624395   2.431   4.862   3.566  0.1143  0.2505  0.3813
17483THY    HA624396   2.387   4.790   3.497 -1.9496  1.5556  0.3026
17484THY      O24397   6.100   1.897   3.050 -0.3973  0.1384 -0.0009
17484THY     HO24398   6.071   1.872   3.140 -2.3968 -0.7528 -1.1734
17484THY    CA124399   6.186   1.803   3.015 -0.2205 -0.8327 -0.1954
17484THY    CA224400   6.221   1.775   2.883 -0.4111  0.3532 -0.2848
17484THY    CP124401   6.157   1.858   2.775  0.2041 -0.6658 -0.2279
17484THY    HP124402   6.114   1.946   2.824 -0.8823 -0.9140 -0.6055
17484THY    CP224403   6.045   1.777   2.715 -0.1197  0.2280  0.3425
17484THY    HP224404   6.070   1.673   2.693 -2.4542  4.5616 -1.3743
17484THY    HP324405   6.004   1.827   2.626 -1.0855  0.8738  0.7152
17484THY    HP424406   5.970   1.772   2.794 -1.5366 -1.0498  0.6154
17484THY    CP324407   6.248   1.911   2.664  0.8073 -0.4543  0.2996
17484THY    HP524408   6.185   1.969   2.596 -0.1164  1.7286  2.0056
17484THY    HP624409   6.273   1.818   2.612 -0.3729 -1.1300  0.3487
17484THY    HP724410   6.334   1.963   2.707 -0.2832  1.9742  0.2242
17484THY    CA324411   6.318   1.678   2.850  0.1736  0.5028  0.0512
17484THY    HA324412   6.344   1.662   2.746 -0.2836  0.0645  1.8914
17484THY    CA424413   6.372   1.607   2.955 -0.2565  0.4001 -0.0426
17484THY    HA424414   6.436   1.524   2.929 -1.8980 -2.4834 -0.5456
17484THY    CA524415   6.328   1.624   3.085 -0.1240 -0.4894 -0.5146
17484THY    CM124416   6.365   1.542   3.205 -0.4558  0.1035 -0.0555
17484THY    HM124417   6.280   1.488   3.250  0.5989  0.4236 -1.4838
17484THY    HM224418   6.432   1.600   3.270  0.5508 -0.3633 -0.6760
17484THY    HM324419   6.423   1.456   3.171 -0.0175 -0.1417  0.3319
17484THY    CA624420   6.241   1.729   3.117 -0.1019  0.7585 -0.5891
17484THY    HA624421   6.209   1.746   3.219 -0.0596  0.6378  0.2349
17485THY      O24422   8.177   0.636   2.229 -0.1641 -0.0440 -0.0583
17485THY     HO24423   8.246   0.589   2.280 -0.4214 -0.5965 -1.0610
17485THY    CA124424   8.100   0.546   2.167 -0.1099  0.2419 -1.1399
17485THY    CA224425   8.005   0.584   2.071 -0.4416  0.1103 -0.0840
17485THY    CP124426   7.980   0.731   2.030 -0.0202 -0.1862  0.4338
17485THY    HP124427   8.077   0.782   2.025  0.0153 -1.7204  0.2720
17485THY    CP224428   7.881   0.803   2.116  0.3535 -0.0521 -0.8253
17485THY    HP224429   7.798   0.734   2.135 -0.9133  0.3211  0.7372
17485THY    HP324430   7.840   0.892   2.067  0.2980  1.2503 -0.1111
17485THY    HP424431   7.930   0.837   2.208 -1.6808  0.8819 -0.3100
17485THY    CP324432   7.924   0.738   1.893 -0.3638  0.1993  0.3778
17485THY    HP524433   7.982   0.673   1.827 -0.1691  0.6754  0.0603
17485THY    HP624434   7.943   0.838   1.852  2.3326 -0.9599 -0.5262
17485THY    HP724435   7.815   0.730   1.891 -0.6077  0.8982  2.6675
17485THY    CA324436   7.935   0.472   2.014 -0.0310  0.0145 -0.3717
17485THY    HA324437   7.858   0.481   1.938  1.4348 -1.4719  0.1452
17485THY    CA424438   7.970   0.337   2.042 -0.0753 -0.2601 -0.0185
17485THY    HA424439   7.916   0.251   2.002  0.9217  2.0149 -1.8054
17485THY    CA524440   8.067   0.312   2.137 -0.4854  0.5452  0.0192
17485THY    CM124441   8.084   0.164   2.179 -0.2502  0.3856 -1.0855
17485THY    HM124442   7.991   0.124   2.220 -0.0637  0.7849 -1.1218
17485THY    HM224443   8.165   0.141   2.250  1.1390 -0.6164  0.4478
17485THY    HM324444   8.114   0.118   2.084  0.9712  0.3419 -0.2599
17485THY    CA624445   8.139   0.413   2.191  0.4326 -0.8346 -0.0452
17485THY    HA624446   8.212   0.392   2.269 -0.8269  1.1113  2.2146
17486THY      O24447   1.031   5.449   3.168 -0.2899 -0.1732  0.2234
17486THY     HO24448   1.020   5.443   3.264  2.5468  0.3037  1.0809
17486THY    CA124449   1.105   5.341   3.121 -0.0899  0.1190 -0.6611
17486THY    CA224450   1.168   5.337   2.989  0.3334  0.2713  0.3863
17486THY    CP124451   1.183   5.454   2.903  0.7316 -0.5284 -0.0656
17486THY    HP124452   1.160   5.535   2.974 -0.4811  0.3513 -1.1535
17486THY    CP224453   1.079   5.459   2.791 -0.1705 -1.3671  0.4755
17486THY    HP224454   1.073   5.554   2.738 -1.2782 -2.5681 -0.2265
17486THY    HP324455   0.981   5.436   2.833 -1.1621 -2.6585  2.1663
17486THY    HP424456   1.106   5.389   2.710 -2.0270 -0.5695 -1.2577
17486THY    CP324457   1.318   5.492   2.838 -0.2671  0.1783  0.4598
17486THY    HP524458   1.395   5.468   2.912  1.1893 -2.1788 -2.9580
17486THY    HP624459   1.322   5.601   2.823  0.5946  0.2091  0.4431
17486THY    HP724460   1.344   5.429   2.753  0.6884  0.8135 -0.0326
17486THY    CA324461   1.244   5.216   2.959  0.3317  0.3883  0.3943
17486THY    HA324462   1.302   5.204   2.868  0.6535  0.7865 -1.3869
17486THY    CA424463   1.242   5.113   3.059  0.2049  0.1601 -0.3982
17486THY    HA424464   1.304   5.025   3.042  1.5197 -1.8772  0.8352
17486THY    CA524465   1.179   5.125   3.178  0.5192 -0.4032  0.2252
17486THY    CM124466   1.173   5.015   3.276  0.2542  0.0143 -0.3144
17486THY    HM124467   1.272   4.989   3.316 -0.2943  1.3714 -0.3876
17486THY    HM224468   1.118   4.928   3.240  1.5743 -2.3958 -0.2438
17486THY    HM324469   1.120   5.047   3.366  0.4936 -0.1593  0.6098
17486THY    CA624470   1.105   5.241   3.211  0.6518  0.5727  0.7407
17486THY    HA624471   1.042   5.243   3.299 -1.3591 -0.7716  0.0049
17487THY      O24472   5.964   7.708   3.624 -0.6793 -0.2654  0.1858
17487THY     HO24473   6.015   7.648   3.680 -1.3229  1.5324  1.2161
17487THY    CA124474   5.837   7.697   3.661  0.4855  1.1544  0.1108
17487THY    CA224475   5.732   7.783   3.622 -0.1345 -0.4089  0.2526
17487THY    CP124476   5.783   7.908   3.558 -0.3093  1.1896 -0.1767
17487THY    HP124477   5.869   7.885   3.493 -0.3184  0.9556  0.4203
17487THY    CP224478   5.820   8.018   3.664 -0.3747  0.1106  0.4235
17487THY    HP224479   5.859   8.109   3.618 -0.5408  2.8584  1.9621
17487THY    HP324480   5.907   7.977   3.717 -1.0654  0.7172 -0.2955
17487THY    HP424481   5.739   8.044   3.734 -0.2268  0.4909 -0.1226
17487THY    CP324482   5.677   7.978   3.466  0.1330 -0.5450  0.7210
17487THY    HP524483   5.694   8.084   3.441  0.0082  1.1407  1.1602
17487THY    HP624484   5.577   7.977   3.510  0.0816 -0.5447 -2.1784
17487THY    HP724485   5.678   7.930   3.367 -1.1384 -0.4610  0.4996
17487THY    CA324486   5.596   7.762   3.661 -0.1071 -0.0926  0.0128
17487THY    HA324487   5.514   7.829   3.638 -1.7343  0.8732 -1.5567
17487THY    CA424488   5.579   7.650   3.742 -0.1119  0.4723 -0.2239
17487THY    HA424489   5.481   7.629   3.783  0.4032  1.8944  0.0760
17487THY    CA524490   5.683   7.562   3.782  0.0632 -0.5463 -0.3091
17487THY    CM124491   5.649   7.447   3.875  0.1958  0.9694  0.4558
17487THY    HM124492   5.710   7.459   3.966  1.6685 -0.0695  1.2171
17487THY    HM224493   5.680   7.353   3.829  0.8010  1.3811  0.4446
17487THY    HM324494   5.542   7.433   3.892 -0.0077 -0.7566 -0.3806
17487THY    CA624495   5.815   7.582   3.736  1.0115 -0.2301  0.2533
17487THY    HA624496   5.899   7.517   3.760 -0.3497  1.1971 -1.0793
17488THY      O24497   6.147   0.319   4.667  0.2295 -0.1860  0.2578
17488THY     HO24498   6.204   0.284   4.737 -0.6582  0.5020  0.1431
17488THY    CA124499   6.016   0.288   4.686 -0.0071  0.5509  0.2256
17488THY    CA224500   5.922   0.308   4.584 -0.2876 -0.3353 -0.9654
17488THY    CP124501   5.978   0.343   4.440  0.0619 -0.5003  0.0407
17488THY    HP124502   6.081   0.379   4.435  0.3016 -1.9675 -0.7748
17488THY    CP224503   5.892   0.443   4.364 -0.4023 -0.1469  0.5317
17488THY    HP224504   5.833   0.507   4.431 -0.5416 -0.9042  1.2112
17488THY    HP324505   5.813   0.399   4.303 -0.3479 -0.8609  1.3870
17488THY    HP424506   5.959   0.495   4.294  1.3902  1.4611  0.5262
17488THY    CP324507   5.974   0.212   4.359  0.1177 -0.2555 -0.2830
17488THY    HP524508   6.050   0.145   4.402  1.9005 -2.6371  0.0610
17488THY    HP624509   5.997   0.224   4.252 -2.9735 -0.8175  1.7664
17488THY    HP724510   5.876   0.166   4.376 -0.2852 -2.4241 -0.3504
17488THY    CA324511   5.790   0.295   4.621  0.3885 -0.5636  0.3285
17488THY    HA324512   5.716   0.310   4.543 -0.3318 -0.4052 -2.0215
17488THY    CA424513   5.751   0.244   4.743 -0.2486  0.0640  0.5400
17488THY    HA424514   5.647   0.220   4.762  0.0350 -0.2543 -1.0404
17488THY    CA524515   5.844   0.215   4.840  0.8732 -0.2423  0.0575
17488THY    CM124516   5.803   0.175   4.975  0.0832 -0.6547  0.4110
17488THY    HM124517   5.729   0.244   5.018 -0.5696 -2.9647  1.2166
17488THY    HM224518   5.889   0.177   5.044  0.6085 -1.2006 -1.4407
17488THY    HM324519   5.760   0.075   4.972 -1.9352  0.5130  1.1759
17488THY    CA624520   5.979   0.237   4.810  0.0652 -0.5030 -0.1921
17488THY    HA624521   6.057   0.215   4.882 -0.1402 -0.6190 -1.3775
17489THY      O24522   6.328   0.495   6.820  0.3212  0.2178  0.2320
17489THY     HO24523   6.365   0.442   6.893  1.6528  0.8084  1.8908
17489THY    CA124524   6.345   0.420   6.703  0.0674  0.3575 -0.1861
17489THY    CA224525   6.270   0.449   6.587  0.0639 -0.3287  0.7409
17489THY    CP124526   6.190   0.571   6.577  0.0083 -0.2605  0.2632
17489THY    HP124527   6.214   0.633   6.664  1.9870  1.2045 -2.3272
17489THY    CP224528   6.037   0.552   6.586 -0.5491  0.2822  0.6527
17489THY    HP224529   5.992   0.502   6.499 -0.2823 -0.7932  2.2232
17489THY    HP324530   5.989   0.648   6.606  1.6106 -1.8565  2.3009
17489THY    HP424531   6.016   0.492   6.675 -0.0117 -0.5207 -0.8130
17489THY    CP324532   6.233   0.655   6.454  0.5916 -0.1745  1.0871
17489THY    HP524533   6.199   0.605   6.363 -0.7464  0.6928  0.3606
17489THY    HP624534   6.342   0.667   6.458  0.3717  0.4059  3.3678
17489THY    HP724535   6.188   0.755   6.449 -0.1342 -1.1601  0.7311
17489THY    CA324536   6.283   0.367   6.478  0.8412 -0.4760  0.3093
17489THY    HA324537   6.224   0.391   6.390 -0.2376  0.2957  0.5937
17489THY    CA424538   6.367   0.255   6.482  0.0552  0.0934 -0.3224
17489THY    HA424539   6.384   0.191   6.395  2.6516  0.6125 -0.4772
17489THY    CA524540   6.449   0.234   6.592  0.4613  0.0751  0.5716
17489THY    CM124541   6.555   0.118   6.596 -0.7883  1.1349  0.3492
17489THY    HM124542   6.526   0.030   6.654 -2.0786  1.9864  1.3059
17489THY    HM224543   6.645   0.145   6.653  1.9964 -0.6782 -3.9740
17489THY    HM324544   6.598   0.095   6.498 -2.5946 -0.0965  1.8991
17489THY    CA624545   6.437   0.320   6.704  0.1208  0.0715 -0.4672
17489THY    HA624546   6.508   0.311   6.786  2.5812 -1.6585  1.5009
17490THY      O24547   6.518   7.067   3.780 -0.1839 -0.9968  0.3380
17490THY     HO24548   6.471   7.068   3.695 -1.0496 -0.5748 -0.9407
17490THY    CA124549   6.607   7.162   3.775 -0.1545 -0.1702 -0.3326
17490THY    CA224550   6.729   7.149   3.838 -0.0457 -0.3618  0.6221
17490THY    CP124551   6.764   7.024   3.922  0.1024  0.3924  0.2824
17490THY    HP124552   6.682   6.953   3.904  0.8876 -1.8007 -0.1386
17490THY    CP224553   6.787   7.063   4.071  0.2774 -0.3360  0.4821
17490THY    HP224554   6.695   7.108   4.111 -0.5226  0.1786 -1.5309
17490THY    HP324555   6.878   7.124   4.072  1.6500  1.4419 -1.4353
17490THY    HP424556   6.801   6.972   4.130 -1.1490  0.5496  0.7969
17490THY    CP324557   6.886   6.954   3.865 -0.3706 -0.0932  0.3146
17490THY    HP524558   6.907   6.868   3.929  0.8131  0.1358  0.7566
17490THY    HP624559   6.980   7.010   3.872 -0.4920 -1.4453  0.7404
17490THY    HP724560   6.876   6.921   3.761 -2.5558  0.3815 -0.7431
17490THY    CA324561   6.828   7.251   3.824 -0.4365 -0.0617 -0.0854
17490THY    HA324562   6.926   7.245   3.871 -0.4897  0.0552 -0.0458
17490THY    CA424563   6.792   7.361   3.757  0.4502  0.3765  0.9988
17490THY    HA424564   6.863   7.442   3.741  1.4897 -3.8004 -0.4379
17490THY    CA524565   6.677   7.364   3.681  0.2365 -0.4399  0.0285
17490THY    CM124566   6.642   7.487   3.590 -0.6444 -1.2571 -0.2326
17490THY    HM124567   6.533   7.497   3.595 -0.4246  0.1254  2.3445
17490THY    HM224568   6.669   7.465   3.486  1.6745 -0.9432  0.8027
17490THY    HM324569   6.687   7.581   3.624  0.3522  0.6866 -1.3505
17490THY    CA624570   6.587   7.261   3.682 -0.1450  0.1838  0.3264
17490THY    HA624571   6.502   7.256   3.615 -1.3011  1.5526  1.0647
17491THY      O24572   9.049   3.216   4.132  0.5259 -0.0727  0.0589
17491THY     HO24573   9.008   3.279   4.194 -0.8591  0.1401 -0.9911
17491THY    CA124574   9.036   3.095   4.195  0.8537 -0.2545  0.5467
17491THY    CA224575   8.937   3.004   4.164  0.2636  0.6358  0.0068
17491THY    CP124576   8.825   3.042   4.064 -0.5498 -0.3001  0.4605
17491THY    HP124577   8.853   3.134   4.012 -0.0518  1.7589  1.5537
17491THY    CP224578   8.689   3.066   4.142  0.6482  0.4428  0.2798
17491THY    HP224579   8.679   2.980   4.209  1.1071 -0.4372 -0.4855
17491THY    HP324580   8.609   3.079   4.068  0.8067  0.1709 -0.2600
17491THY    HP424581   8.708   3.155   4.203 -1.0415  1.6276 -0.1147
17491THY    CP324582   8.810   2.933   3.956 -0.2318 -0.1173  0.3766
17491THY    HP524583   8.751   2.970   3.872  0.9403 -1.2438 -0.2045
17491THY    HP624584   8.763   2.839   3.987  0.6658  0.2309  0.0253
17491THY    HP724585   8.908   2.916   3.910  0.4381  1.1641  0.6609
17491THY    CA324586   8.923   2.880   4.232 -0.0856  0.0998  0.1129
17491THY    HA324587   8.836   2.817   4.216  0.8492  0.8187 -1.4364
17491THY    CA424588   9.019   2.843   4.325 -0.1145  0.1446  0.0986
17491THY    HA424589   9.008   2.748   4.377 -1.4114  0.9005  0.6333
17491THY    CA524590   9.124   2.933   4.355  0.0553  0.3519  0.4984
17491THY    CM124591   9.215   2.899   4.463 -0.4277 -0.5381 -0.4574
17491THY    HM124592   9.159   2.862   4.549 -1.1310  0.3456  2.4612
17491THY    HM224593   9.267   2.990   4.495 -2.4299  1.6553 -0.0065
17491THY    HM324594   9.287   2.820   4.436  0.1703 -1.7101  0.4417
17491THY    CA624595   9.133   3.059   4.299  0.4694  0.4955  0.6241
17491THY    HA624596   9.226   3.113   4.315  2.0615 -1.2671 -1.4284
17492THY      O24597   0.714   5.030   5.942 -0.1224 -0.1676  0.6071
17492THY     HO24598   0.677   4.980   6.016  1.7627 -0.9415 -2.2278
17492THY    CA124599   0.833   4.972   5.919  0.4398 -0.6426 -0.0736
17492THY    CA224600   0.892   4.962   5.792  0.4880  0.7382 -0.3935
17492THY    CP124601   0.821   5.023   5.670 -0.3361  0.5156 -0.2114
17492THY    HP124602   0.746   5.089   5.716 -0.7933 -0.6021  0.0697
17492THY    CP224603   0.761   4.914   5.570 -0.6503  0.0530  0.6893
17492THY    HP224604   0.705   4.958   5.486  0.5853 -1.2633 -0.1686
17492THY    HP324605   0.706   4.836   5.624  0.6424 -1.0203 -1.0525
17492THY    HP424606   0.833   4.845   5.525 -0.5271 -0.2410  1.0096
17492THY    CP324607   0.918   5.112   5.597  0.2515 -0.1396 -0.2035
17492THY    HP524608   0.865   5.191   5.542 -2.0133  2.0295 -0.0800
17492THY    HP624609   0.987   5.053   5.535  0.4589 -1.0667  0.9845
17492THY    HP724610   0.980   5.172   5.665 -0.0792 -0.1871  0.1975
17492THY    CA324611   1.005   4.893   5.771 -0.4318 -0.4542 -0.0513
17492THY    HA324612   1.037   4.871   5.669 -0.2117 -0.5557  0.7113
17492THY    CA424613   1.074   4.838   5.883  0.1404  0.1561 -0.5342
17492THY    HA424614   1.164   4.782   5.861 -0.3668 -1.3761 -0.8165
17492THY    CA524615   1.024   4.858   6.009  0.0066 -0.2703 -0.6216
17492THY    CM124616   1.101   4.807   6.132  0.4777  0.5178 -0.1990
17492THY    HM124617   1.045   4.787   6.225 -0.5663 -0.0026  0.2471
17492THY    HM224618   1.172   4.883   6.167  3.0197 -1.8472 -1.3254
17492THY    HM324619   1.152   4.713   6.107  0.6312  1.7534 -0.4694
17492THY    CA624620   0.904   4.931   6.030 -0.0356  0.4779 -0.5952
17492THY    HA624621   0.875   4.943   6.134  0.3604  0.5617 -0.3451
17493THY      O24622   7.729   0.805   5.480  0.2403  0.0302 -0.5081
17493THY     HO24623   7.738   0.737   5.410  0.9425  0.3261 -0.7281
17493THY    CA124624   7.642   0.904   5.458 -0.0089 -0.2929 -0.2795
17493THY    CA224625   7.641   1.040   5.504 -0.6808  0.4018 -0.1422
17493THY    CP124626   7.733   1.085   5.613 -0.4995  0.4107  0.3978
17493THY    HP124627   7.830   1.033   5.610 -1.2576  0.0715 -1.0459
17493THY    CP224628   7.666   1.063   5.755  0.2265 -0.2747 -0.5754
17493THY    HP224629   7.652   0.955   5.767  0.1557 -0.4160 -0.5816
17493THY    HP324630   7.574   1.117   5.780  0.8590 -0.8892  0.8433
17493THY    HP424631   7.740   1.090   5.831  1.5770 -1.8103  0.1837
17493THY    CP324632   7.776   1.231   5.603  0.1519  0.4830  0.3160
17493THY    HP524633   7.689   1.293   5.628  2.4111  4.5313  2.2710
17493THY    HP624634   7.816   1.252   5.503 -0.2115  0.4033  0.6493
17493THY    HP724635   7.856   1.257   5.674  2.5451 -2.7403  2.5741
17493THY    CA324636   7.532   1.125   5.478  0.1077  0.4766 -0.8770
17493THY    HA324637   7.517   1.225   5.518 -0.8895 -2.0614  0.0645
17493THY    CA424638   7.437   1.076   5.391  0.3919 -0.5708 -0.4225
17493THY    HA424639   7.344   1.128   5.368  0.6150  1.1768  0.8495
17493THY    CA524640   7.436   0.947   5.339  0.2085  0.3653 -0.3863
17493THY    CM124641   7.323   0.889   5.261  0.2607 -0.1916 -0.1983
17493THY    HM124642   7.234   0.954   5.258  0.2447 -0.0595 -0.2147
17493THY    HM224643   7.292   0.793   5.304  0.0539  0.8920  0.3395
17493THY    HM324644   7.356   0.865   5.159 -3.3114 -1.6613  0.3605
17493THY    CA624645   7.536   0.862   5.377 -0.1393 -0.0192  0.3044
17493THY    HA624646   7.531   0.759   5.343  1.9377 -0.9839  0.4750
17494THY      O24647   8.868   8.987   5.119 -0.0187  0.6579  0.6002
17494THY     HO24648   8.923   9.012   5.043  2.2619  1.3062 -1.9391
17494THY    CA124649   8.944   9.001   5.235  0.1404 -0.0558  0.2877
17494THY    CA224650   8.911   8.933   5.356 -0.0409  0.4961  0.8159
17494THY    CP124651   8.778   8.844   5.352  0.3722  0.4036 -0.1335
17494THY    HP124652   8.709   8.872   5.272  0.6103  0.5462  0.9104
17494THY    CP224653   8.705   8.864   5.488  1.0129 -0.3465  0.8565
17494THY    HP224654   8.620   8.794   5.484  0.8778 -0.1641  1.0068
17494THY    HP324655   8.672   8.966   5.514  0.2380  2.8855 -0.0975
17494THY    HP424656   8.773   8.821   5.561 -0.0773  0.5100  0.5277
17494THY    CP324657   8.815   8.699   5.337 -0.0850 -0.3342  0.2636
17494THY    HP524658   8.868   8.660   5.425  0.4571 -0.6481  0.2844
17494THY    HP624659   8.884   8.691   5.252  0.2426  0.0182 -0.7753
17494THY    HP724660   8.732   8.639   5.296 -1.0393 -0.1114  1.3796
17494THY    CA324661   8.994   8.959   5.470  0.5839 -0.4643  0.3844
17494THY    HA324662   8.963   8.919   5.566  1.0520 -1.3075 -2.1538
17494THY    CA424663   9.098   9.051   5.458  0.1593 -0.3019 -0.8885
17494THY    HA424664   9.154   9.076   5.548 -1.9138  1.3007 -1.6268
17494THY    CA524665   9.126   9.117   5.339  0.3862 -0.7562 -0.0940
17494THY    CM124666   9.230   9.224   5.338 -0.0365 -0.9959 -0.2910
17494THY    HM124667   9.317   9.191   5.280  0.2145  0.2168 -1.8841
17494THY    HM224668   9.265   9.237   5.441  0.2133 -1.2841  1.5877
17494THY    HM324669   9.179   9.311   5.296 -0.0320  1.8678  1.2006
17494THY    CA624670   9.045   9.099   5.228 -0.1180  0.4171 -0.9840
17494THY    HA624671   9.074   9.161   5.143  1.7197  0.9224 -1.0795
17495THY      O24672   2.050   6.642   6.151  0.2537  0.8105 -0.2591
17495THY     HO24673   2.028   6.570   6.089  1.9364  0.3512 -0.4306
17495THY    CA124674   2.089   6.752   6.075  0.4370 -0.0790 -0.4427
17495THY    CA224675   2.082   6.884   6.128 -0.2670 -0.0067  0.2360
17495THY    CP124676   2.036   6.902   6.273 -0.4015 -0.3567 -0.2997
17495THY    HP124677   2.039   6.815   6.340 -4.0354  0.4564  0.0097
17495THY    CP224678   1.884   6.932   6.271 -0.3083 -0.0582 -0.0773
17495THY    HP224679   1.833   6.938   6.368 -0.0698  0.0774 -0.2601
17495THY    HP324680   1.825   6.868   6.205  0.0831  1.2329 -1.8207
17495THY    HP424681   1.868   7.037   6.241  0.2805 -0.8026 -0.1910
17495THY    CP324682   2.122   7.016   6.340  0.2858 -0.5001  0.0922
17495THY    HP524683   2.095   7.115   6.302 -2.2653 -0.0615 -0.3593
17495THY    HP624684   2.229   6.995   6.341 -0.2851  3.1230 -3.9219
17495THY    HP724685   2.095   7.024   6.446 -0.0736 -0.5782 -0.0875
17495THY    CA324686   2.104   6.990   6.037 -0.3069  0.1736 -0.6413
17495THY    HA324687   2.093   7.092   6.073 -0.6673  2.7520 -1.5132
17495THY    CA424688   2.142   6.969   5.905 -0.3814 -0.0653  0.6448
17495THY    HA424689   2.160   7.053   5.839  0.2080 -0.2100  0.4127
17495THY    CA524690   2.154   6.836   5.857 -0.2377 -0.0769  0.2340
17495THY    CM124691   2.197   6.815   5.718 -0.5266  0.2277  0.1417
17495THY    HM124692   2.195   6.709   5.692 -1.8954  3.1025 -0.6105
17495THY    HM224693   2.297   6.860   5.711 -1.5283  1.3124  2.7217
17495THY    HM324694   2.129   6.864   5.648  0.9839 -0.8807  0.7673
17495THY    CA624695   2.116   6.735   5.941 -0.5674  0.5376 -0.7924
17495THY    HA624696   2.121   6.634   5.901  0.7990  1.0588 -0.9433
17496THY      O24697   5.933   7.040   4.870  0.5703 -0.5394  0.8944
17496THY     HO24698   6.007   7.057   4.930  2.2881 -1.9553 -1.1698
17496THY    CA124699   5.939   6.909   4.842  0.1246 -0.4397 -1.0678
17496THY    CA224700   5.843   6.845   4.762 -0.1172 -0.0755  0.2086
17496THY    CP124701   5.735   6.928   4.696 -0.0618 -0.8883 -0.3974
17496THY    HP124702   5.726   7.019   4.757 -0.7561 -2.1271  0.3884
17496THY    CP224703   5.595   6.876   4.696  0.7214 -0.2857  0.0723
17496THY    HP224704   5.579   6.780   4.645  2.8419 -1.0748  0.0667
17496THY    HP324705   5.524   6.948   4.655 -1.5521  0.3576 -1.7043
17496THY    HP424706   5.570   6.870   4.802 -0.2396 -0.4827  0.4100
17496THY    CP324707   5.781   6.974   4.558  0.5325 -0.0732 -0.0263
17496THY    HP524708   5.783   6.887   4.491 -2.6848 -1.1016  0.5385
17496THY    HP624709   5.883   7.008   4.540  1.0825 -0.1920 -1.6601
17496THY    HP724710   5.705   7.041   4.517  0.4233  0.2228  0.0291
17496THY    CA324711   5.844   6.701   4.747  0.0842 -0.1599  0.2861
17496THY    HA324712   5.763   6.651   4.694  0.4208 -0.7923  0.3960
17496THY    CA424713   5.939   6.630   4.815 -0.8783 -0.5078  0.6495
17496THY    HA424714   5.945   6.521   4.816 -0.0221  1.5782  0.6674
17496THY    CA524715   6.042   6.695   4.891  0.2605 -0.4930 -0.1591
17496THY    CM124716   6.140   6.613   4.971 -0.1202  0.4974 -0.5204
17496THY    HM124717   6.088   6.523   5.006  0.4760 -1.6390 -1.7692
17496THY    HM224718   6.180   6.670   5.055 -1.7159  0.2656  1.0032
17496THY    HM324719   6.218   6.589   4.898 -0.6994 -0.9696  1.7673
17496THY    CA624720   6.045   6.832   4.895  0.3575 -0.4530  0.8209
17496THY    HA624721   6.130   6.871   4.951  0.3174  0.3750 -0.2387
17497THY      O24722   2.551   8.020   6.554 -0.2660 -0.0031 -0.2149
17497THY     HO24723   2.618   8.085   6.526  0.5598 -0.0473 -1.0656
17497THY    CA124724   2.598   7.946   6.649  0.1961 -0.0345 -0.1082
17497THY    CA224725   2.512   7.878   6.742  0.2655 -0.1098  0.8465
17497THY    CP124726   2.349   7.888   6.751 -0.2251 -0.0938  0.0245
17497THY    HP124727   2.312   7.924   6.654  0.5920  0.3298  2.1770
17497THY    CP224728   2.296   7.992   6.849 -0.2750  0.6945 -0.3373
17497THY    HP224729   2.187   8.000   6.846 -0.3115  3.1686  1.1167
17497THY    HP324730   2.331   8.091   6.819 -1.2058  2.3596  0.5424
17497THY    HP424731   2.331   7.968   6.950 -0.2547  0.9122  0.5987
17497THY    CP324732   2.260   7.761   6.780 -0.2648  0.4549 -0.2368
17497THY    HP524733   2.279   7.689   6.700  0.3211 -2.6368  3.0874
17497THY    HP624734   2.155   7.790   6.774 -0.5349 -2.7846 -1.4622
17497THY    HP724735   2.293   7.724   6.878  0.7573 -0.4010 -1.7335
17497THY    CA324736   2.583   7.810   6.839 -0.2698 -0.1381  0.0758
17497THY    HA324737   2.527   7.753   6.913 -2.3977 -2.0549 -0.4390
17497THY    CA424738   2.718   7.795   6.847 -0.1204  0.9581 -0.2709
17497THY    HA424739   2.760   7.730   6.923  0.2183  0.5084 -0.5856
17497THY    CA524740   2.793   7.863   6.750  0.1488  0.2106 -0.1801
17497THY    CM124741   2.935   7.810   6.730 -0.6449  0.0192 -0.2755
17497THY    HM124742   2.986   7.778   6.822  0.6876 -1.1989 -1.7809
17497THY    HM224743   2.994   7.895   6.692 -2.4161  0.6381  1.3035
17497THY    HM324744   2.946   7.721   6.668 -1.1901  1.1361 -1.1526
17497THY    CA624745   2.734   7.943   6.654 -0.2341 -0.5589 -0.2673
17497THY    HA624746   2.785   7.988   6.569 -1.5811 -0.7848  0.9225
17498THY      O24747   6.588   2.357   3.065  0.4323 -0.6592 -0.4737
17498THY     HO24748   6.647   2.419   3.112 -0.1360  0.2532 -0.5990
17498THY    CA124749   6.657   2.254   3.029 -0.5438  0.4767 -0.3016
17498THY    CA224750   6.594   2.134   2.978  0.4642 -0.1697 -0.0657
17498THY    CP124751   6.446   2.119   2.962  0.1072  0.5235  0.1186
17498THY    HP124752   6.425   2.024   2.912  0.2606 -0.5270  0.6163
17498THY    CP224753   6.401   2.224   2.860  0.7376 -0.1429  0.3642
17498THY    HP224754   6.292   2.215   2.860  0.7155 -0.5929  0.6198
17498THY    HP324755   6.429   2.218   2.755 -2.1842 -0.9856 -0.2421
17498THY    HP424756   6.409   2.326   2.900  2.2704  1.2987 -0.2861
17498THY    CP324757   6.366   2.115   3.095  0.5002  0.8100 -0.5971
17498THY    HP524758   6.371   2.019   3.147 -0.7778 -0.6209 -1.4818
17498THY    HP624759   6.263   2.122   3.060  1.3252 -1.9203 -0.9776
17498THY    HP724760   6.390   2.196   3.166  0.2991 -1.3418  1.4644
17498THY    CA324761   6.684   2.029   2.943 -0.1857 -0.4086 -0.0840
17498THY    HA324762   6.652   1.930   2.910 -0.8591  0.5980 -0.2171
17498THY    CA424763   6.817   2.035   2.968 -0.9483 -0.1122 -0.1188
17498THY    HA424764   6.884   1.952   2.956 -0.3216 -0.4191  0.4245
17498THY    CA524765   6.881   2.149   3.018 -0.0676  0.2609 -0.6198
17498THY    CM124766   7.021   2.146   3.055  0.2714 -0.0587 -0.3329
17498THY    HM124767   7.038   2.058   3.119 -1.0089  1.3680  0.3860
17498THY    HM224768   7.049   2.232   3.118  1.8828  2.0197 -2.2609
17498THY    HM324769   7.074   2.125   2.962 -2.4450 -1.2387 -2.7871
17498THY    CA624770   6.800   2.257   3.039  0.3304 -0.7409  0.1638
17498THY    HA624771   6.842   2.349   3.079  0.5358 -2.2547  0.7680
17499THY      O24772   6.422   3.639   4.126 -0.0230 -0.0347 -0.2339
17499THY     HO24773   6.325   3.641   4.119  0.0494 -1.8779 -0.9818
17499THY    CA124774   6.456   3.517   4.092 -1.0228  0.1290  0.9119
17499THY    CA224775   6.591   3.480   4.071 -0.3120  0.4786 -0.4388
17499THY    CP124776   6.704   3.566   4.109 -0.5421 -0.1445 -0.0673
17499THY    HP124777   6.674   3.665   4.148  0.4006  0.6621 -0.0902
17499THY    CP224778   6.798   3.595   3.988  0.3113  0.2396 -0.1085
17499THY    HP224779   6.738   3.647   3.911 -3.7529 -0.1665 -4.6526
17499THY    HP324780   6.848   3.508   3.944  1.3021  0.0902  0.5180
17499THY    HP424781   6.881   3.650   4.032  2.1052  0.3716 -2.7709
17499THY    CP324782   6.784   3.514   4.227 -0.1496 -0.0543  0.3906
17499THY    HP524783   6.837   3.602   4.264  1.3206 -0.1338 -0.4386
17499THY    HP624784   6.865   3.445   4.202 -0.3444  0.0920  0.1047
17499THY    HP724785   6.721   3.478   4.309 -1.6548 -0.7069  1.4188
17499THY    CA324786   6.622   3.355   4.024 -0.2296 -0.2634  0.2748
17499THY    HA324787   6.725   3.320   4.019  0.0546  1.1079  0.8668
17499THY    CA424788   6.521   3.257   4.009  0.2761 -0.6257  1.0046
17499THY    HA424789   6.539   3.154   3.978 -0.1348  2.4173 -0.1028
17499THY    CA524790   6.388   3.295   4.031  0.0654 -0.0049 -0.1505
17499THY    CM124791   6.276   3.201   4.006 -0.3448 -0.9538 -0.1341
17499THY    HM124792   6.257   3.197   3.898 -0.2952 -0.9167 -2.0454
17499THY    HM224793   6.186   3.230   4.063  1.3282  2.1960 -0.6508
17499THY    HM324794   6.286   3.097   4.040 -0.8656 -2.4635 -0.6940
17499THY    CA624795   6.357   3.426   4.071  0.1971 -0.1516 -0.0466
17499THY    HA624796   6.253   3.457   4.083  0.3712  0.9899  0.1481
17500THY      O24797   5.685   0.900   2.977 -0.1191  0.4337 -0.3028
17500THY     HO24798   5.654   0.829   3.036 -1.2496  0.7528  0.4358
17500THY    CA124799   5.573   0.940   2.914 -0.4146 -0.5164 -0.6623
17500THY    CA224800   5.571   1.019   2.798 -0.5722  0.7898 -0.3163
17500THY    CP124801   5.702   1.079   2.746  0.4987 -0.0042  0.5717
17500THY    HP124802   5.782   1.056   2.816  0.8967  0.2081  2.4183
17500THY    CP224803   5.689   1.237   2.731  0.0370 -0.3284  0.1559
17500THY    HP224804   5.597   1.267   2.681  1.2984 -2.2540  1.0541
17500THY    HP324805   5.781   1.271   2.681  0.4475  1.1265  1.2713
17500THY    HP424806   5.694   1.268   2.836  3.1032  0.5027 -2.5479
17500THY    CP324807   5.731   1.034   2.607 -0.2593  0.0700  0.1819
17500THY    HP524808   5.825   1.079   2.571  0.1751 -0.0433 -0.7924
17500THY    HP624809   5.649   1.073   2.546  0.2465 -0.4511  0.4453
17500THY    HP724810   5.724   0.925   2.603 -1.2834 -0.5445  0.2602
17500THY    CA324811   5.449   1.064   2.736 -0.1271 -0.1202  0.6286
17500THY    HA324812   5.453   1.123   2.645 -0.7185 -0.3128  0.3734
17500THY    CA424813   5.334   1.015   2.797  0.3833 -0.3004 -0.4726
17500THY    HA424814   5.237   1.036   2.752  0.1620 -0.9303 -2.6595
17500THY    CA524815   5.338   0.932   2.916  0.7148 -0.5462 -0.3116
17500THY    CM124816   5.205   0.908   2.989  1.3476  0.4923 -0.3802
17500THY    HM124817   5.190   0.986   3.065  0.6145 -0.5894  0.5603
17500THY    HM224818   5.210   0.808   3.033  0.5099 -0.8133 -1.0058
17500THY    HM324819   5.120   0.905   2.920  0.4892  1.4301  1.1228
17500THY    CA624820   5.454   0.896   2.973  0.3440 -0.6555  0.3393
17500THY    HA624821   5.449   0.838   3.064 -1.1379 -1.4415 -0.8426
17501THY      O24822   5.643   0.690   3.169 -0.1142 -0.5260 -0.1356
17501THY     HO24823   5.611   0.609   3.126  0.6612 -2.4940  0.5505
17501THY    CA124824   5.734   0.653   3.261  0.8238 -0.0339 -0.5276
17501THY    CA224825   5.770   0.729   3.371  0.1435  0.6679 -0.0987
17501THY    CP124826   5.701   0.867   3.387 -0.2793  0.2890 -0.6982
17501THY    HP124827   5.611   0.871   3.325 -0.6134  0.7732 -0.6785
17501THY    CP224828   5.789   0.985   3.339  0.0995 -0.2214 -0.2617
17501THY    HP224829   5.854   0.957   3.256  3.1064  1.2646  1.7965
17501THY    HP324830   5.856   1.022   3.417 -1.1338  0.8305 -0.1576
17501THY    HP424831   5.727   1.070   3.309 -0.2305 -2.2277 -1.1563
17501THY    CP324832   5.656   0.897   3.529 -0.1245 -0.4755  0.3349
17501THY    HP524833   5.595   0.987   3.533 -1.6684 -1.1532 -0.6380
17501THY    HP624834   5.730   0.900   3.610 -1.0088  0.3849 -0.1824
17501THY    HP724835   5.577   0.824   3.551 -1.4601  0.0221  1.8728
17501THY    CA324836   5.878   0.692   3.454  0.2666 -0.0518  0.5390
17501THY    HA324837   5.912   0.746   3.542 -0.8848  1.0268 -0.4452
17501THY    CA424838   5.948   0.575   3.419 -0.1348  0.4444 -0.4816
17501THY    HA424839   6.038   0.549   3.475  1.1511 -0.8400  0.9788
17501THY    CA524840   5.912   0.500   3.312  0.0815  0.4932 -0.1739
17501THY    CM124841   5.990   0.380   3.283 -0.1052 -0.0412 -0.3774
17501THY    HM124842   6.092   0.389   3.322  0.1837 -0.2674 -2.2903
17501THY    HM224843   5.986   0.348   3.178  1.3691 -0.1749 -0.1564
17501THY    HM324844   5.951   0.290   3.331 -0.5166 -1.5953 -1.0631
17501THY    CA624845   5.804   0.541   3.230 -0.3215 -0.3972 -0.1412
17501THY    HA624846   5.772   0.477   3.148  0.4459 -0.7321 -0.1106
17502THY      O24847   6.263   7.205   6.121  0.4227 -0.2862  0.0310
17502THY     HO24848   6.173   7.219   6.087  0.4119  0.8413  3.9018
17502THY    CA124849   6.326   7.134   6.028  1.3993 -0.3819  0.4520
17502THY    CA224850   6.433   7.042   6.045 -0.1521 -0.8463 -0.3150
17502THY    CP124851   6.501   7.030   6.181  0.8080  0.5560 -0.2707
17502THY    HP124852   6.476   7.120   6.239 -1.1836 -3.6158  2.1749
17502THY    CP224853   6.656   7.032   6.163 -0.2493 -0.0779 -0.7468
17502THY    HP224854   6.707   7.048   6.258  0.2795 -0.5427  0.4451
17502THY    HP324855   6.688   7.120   6.106 -0.7328 -0.0621 -0.5576
17502THY    HP424856   6.701   6.943   6.116  2.1331 -2.5094  1.5652
17502THY    CP324857   6.449   6.908   6.258  0.5737  0.3421 -0.3154
17502THY    HP524858   6.341   6.907   6.236  0.7188 -0.7008  1.3607
17502THY    HP624859   6.478   6.917   6.363  0.7018  0.3874 -1.1791
17502THY    HP724860   6.489   6.813   6.221 -2.3754 -0.1351 -1.4901
17502THY    CA324861   6.478   6.968   5.929 -0.8763 -0.2530  0.6080
17502THY    HA324862   6.560   6.898   5.942 -0.1765  0.9708  1.6099
17502THY    CA424863   6.419   6.991   5.807 -0.5081 -0.2736 -0.4273
17502THY    HA424864   6.458   6.953   5.713  1.5080  0.4275 -0.2132
17502THY    CA524865   6.321   7.091   5.794 -0.0782  0.1397 -0.4530
17502THY    CM124866   6.265   7.124   5.653 -0.7911  0.6787  0.2929
17502THY    HM124867   6.208   7.039   5.616  1.4574  0.4587 -1.2213
17502THY    HM224868   6.345   7.149   5.581 -2.1778 -1.6899 -1.7268
17502THY    HM324869   6.195   7.208   5.662 -1.3457  3.6490 -0.3792
17502THY    CA624870   6.271   7.153   5.906 -0.2274  0.0891  0.4354
17502THY    HA624871   6.188   7.223   5.893 -1.1499 -2.9683 -1.0473
17503THY      O24872   7.240   6.826   6.825  0.2680 -0.1224 -0.1202
17503THY     HO24873   7.247   6.740   6.780 -0.0063 -0.4638  0.0342
17503THY    CA124874   7.285   6.829   6.953  0.9570  0.4677 -0.1295
17503THY    CA224875   7.343   6.948   7.012  0.2177  0.2776  1.1869
17503THY    CP124876   7.374   7.062   6.914  0.8524  0.0648  0.6149
17503THY    HP124877   7.422   7.011   6.830  4.3508  1.5225  1.1609
17503THY    CP224878   7.491   7.158   6.958  0.2854  0.1661 -0.7760
17503THY    HP224879   7.563   7.104   7.021 -0.9705  2.1354 -0.2788
17503THY    HP324880   7.444   7.241   7.012  0.8175  0.6630 -0.7933
17503THY    HP424881   7.539   7.201   6.870  2.3276  1.3271 -0.5467
17503THY    CP324882   7.254   7.146   6.872  0.7305  0.3252  0.3601
17503THY    HP524883   7.282   7.230   6.806  1.4599  1.9191  1.4216
17503THY    HP624884   7.193   7.187   6.953  2.7306  2.1105 -0.0341
17503THY    HP724885   7.185   7.071   6.832  1.4622 -1.1425  0.4454
17503THY    CA324886   7.371   6.946   7.148 -0.0742  0.2879 -0.8074
17503THY    HA324887   7.416   7.034   7.194  0.1969  1.5216 -1.5752
17503THY    CA424888   7.338   6.840   7.227  0.4865 -0.0253  0.4297
17503THY    HA424889   7.357   6.846   7.334 -0.7578  0.2558 -0.1870
17503THY    CA524890   7.285   6.722   7.170 -0.2304  0.0686 -0.2515
17503THY    CM124891   7.260   6.605   7.254  0.4679  0.5619 -0.7336
17503THY    HM124892   7.289   6.509   7.210  0.5324  0.0697 -0.4915
17503THY    HM224893   7.157   6.592   7.288 -0.2421 -2.0743 -2.8880
17503THY    HM324894   7.329   6.615   7.339  2.0936 -0.7529 -0.0623
17503THY    CA624895   7.258   6.717   7.031 -0.1832  0.2602 -0.1417
17503THY    HA624896   7.210   6.625   6.997  1.8053 -0.9061 -0.8114
17504THY      O24897   5.143   4.995   2.943 -1.0724  0.0550  0.2105
17504THY     HO24898   5.199   4.933   2.992 -0.6513  0.0270  0.5524
17504THY    CA124899   5.120   4.939   2.819  0.3941  0.6071 -0.1096
17504THY    CA224900   5.026   4.991   2.730  0.9793  0.0210  0.1198
17504THY    CP124901   4.940   5.120   2.755 -0.3348 -0.4245  0.3856
17504THY    HP124902   4.967   5.178   2.845  1.4477 -1.8204  1.8847
17504THY    CP224903   4.791   5.074   2.789 -0.3472  0.4740 -0.4618
17504THY    HP224904   4.736   5.160   2.829  0.0276 -1.4421  0.7289
17504THY    HP324905   4.789   5.000   2.870  0.3756 -0.4133 -1.4963
17504THY    HP424906   4.746   5.034   2.696  2.4604 -1.0089 -0.4049
17504THY    CP324907   4.957   5.212   2.633 -0.0253 -0.0248 -0.1253
17504THY    HP524908   4.879   5.290   2.637  0.7704 -2.3982  0.9050
17504THY    HP624909   4.931   5.158   2.541  0.3884 -0.5805  0.6026
17504THY    HP724910   5.058   5.255   2.632  0.3404  0.4369 -0.9746
17504THY    CA324911   4.995   4.912   2.615  0.0175  0.6301 -0.1069
17504THY    HA324912   4.926   4.946   2.538  0.4692  0.9694  1.6585
17504THY    CA424913   5.055   4.784   2.598 -1.2230 -0.7527  0.3294
17504THY    HA424914   5.023   4.731   2.509 -1.0048 -1.6050  1.5908
17504THY    CA524915   5.156   4.744   2.688  0.1371 -0.4631  0.1160
17504THY    CM124916   5.229   4.617   2.666  0.0723  0.4116 -0.0314
17504THY    HM124917   5.184   4.536   2.725 -1.4321  0.2716  0.6699
17504THY    HM224918   5.333   4.624   2.698  0.5179 -1.3190  2.3054
17504THY    HM324919   5.222   4.591   2.560 -0.8976  0.9707 -2.2839
17504THY    CA624920   5.178   4.818   2.803  0.1384 -0.4692 -0.2158
17504THY    HA624921   5.248   4.784   2.879 -0.8506  0.7725  0.4322
17505THY      O24922   2.680   4.303   5.175 -0.4106  0.5425  0.2433
17505THY     HO24923   2.723   4.342   5.097 -2.0897 -0.0238  1.0554
17505THY    CA124924   2.771   4.303   5.279  0.0173 -0.1015  0.6316
17505THY    CA224925   2.735   4.356   5.406 -0.4483  0.2894  0.6369
17505THY    CP124926   2.592   4.407   5.436  0.1064  1.0766  0.7246
17505THY    HP124927   2.539   4.395   5.341  0.7057  0.4741  2.5261
17505THY    CP224928   2.595   4.562   5.449  0.5752  0.1205 -0.0245
17505THY    HP224929   2.669   4.588   5.525 -0.3438  0.7330  0.8572
17505THY    HP324930   2.504   4.596   5.499  0.3982  0.0271 -0.3552
17505THY    HP424931   2.615   4.601   5.348  2.7237  0.7120  0.5560
17505THY    CP324932   2.526   4.327   5.552  0.8033 -0.6743 -0.7497
17505THY    HP524933   2.547   4.220   5.550  1.3901  4.4589 -1.0027
17505THY    HP624934   2.417   4.336   5.555  0.6786 -1.4021 -1.8149
17505THY    HP724935   2.570   4.356   5.648 -2.6500  1.6183 -2.3720
17505THY    CA324936   2.836   4.362   5.514  0.3890  0.5877  0.4071
17505THY    HA324937   2.807   4.416   5.604 -0.5377 -0.3357  1.5158
17505THY    CA424938   2.967   4.312   5.489  0.4740 -0.3475  0.1638
17505THY    HA424939   3.043   4.342   5.560  0.8664 -1.3331  1.5779
17505THY    CA524940   2.992   4.249   5.366  0.5158 -1.0444  0.2920
17505THY    CM124941   3.127   4.195   5.337 -0.0889 -0.5051  0.5219
17505THY    HM124942   3.146   4.144   5.432  1.0469 -1.7606 -1.5215
17505THY    HM224943   3.198   4.275   5.310  2.1531  1.3713 -0.7112
17505THY    HM324944   3.122   4.123   5.255  1.2909 -1.8039  1.8276
17505THY    CA624945   2.896   4.245   5.262 -0.2610 -0.6341  0.6943
17505THY    HA624946   2.932   4.208   5.167  1.2839 -0.2883  1.2353
17506THY      O24947   5.274   3.644   4.921  0.3577 -0.8336  0.3919
17506THY     HO24948   5.185   3.612   4.896  0.5464 -1.5779  0.4255
17506THY    CA124949   5.261   3.778   4.951 -0.8287  0.2490 -0.2885
17506THY    CA224950   5.371   3.850   5.012  0.7838 -0.9470 -1.1066
17506THY    CP124951   5.495   3.768   5.048 -0.5290  0.1360 -0.2446
17506THY    HP124952   5.477   3.661   5.058 -3.8436  0.3750  0.2421
17506THY    CP224953   5.556   3.810   5.179 -0.5192  0.1873 -0.2034
17506THY    HP224954   5.491   3.821   5.267 -0.5947  0.0802  0.2160
17506THY    HP324955   5.604   3.907   5.164 -0.3977 -1.6005 -0.4997
17506THY    HP424956   5.638   3.742   5.206 -0.2821 -2.0572 -0.9045
17506THY    CP324957   5.607   3.786   4.945  0.1691 -0.4892  0.6309
17506THY    HP524958   5.565   3.784   4.843  0.3373 -0.5523 -0.7248
17506THY    HP624959   5.675   3.702   4.966 -2.1488  1.8438 -0.8009
17506THY    HP724960   5.661   3.881   4.944 -1.2903  0.4978  1.4955
17506THY    CA324961   5.347   3.987   5.044  0.4590  0.2587 -0.3879
17506THY    HA324962   5.416   4.056   5.091 -0.8430 -1.4970  2.2919
17506THY    CA424963   5.229   4.052   5.009  0.8926  0.2136 -0.3286
17506THY    HA424964   5.209   4.156   5.032  0.7362  2.6424 -0.8421
17506THY    CA524965   5.129   3.981   4.951  1.0983  0.3828  0.0220
17506THY    CM124966   4.995   4.042   4.918  0.4379  0.2904  0.1716
17506THY    HM124967   4.958   4.017   4.818 -0.2622 -0.0804  2.4642
17506THY    HM224968   5.005   4.151   4.915 -0.2513  0.5516  0.2453
17506THY    HM324969   4.918   4.014   4.991  0.2250 -0.6755 -1.9801
17506THY    CA624970   5.137   3.845   4.928 -0.4231  0.4819  0.2641
17506THY    HA624971   5.054   3.792   4.883  1.0079 -2.5696  0.3887
17507THY      O24972   5.981   8.044   1.920 -0.5396 -0.4362  0.2784
17507THY     HO24973   5.929   8.125   1.907  1.1455  0.4924  1.5907
17507THY    CA124974   6.004   8.040   2.055 -0.5658  0.0579  0.5208
17507THY    CA224975   6.079   7.937   2.119  0.2065  0.4090  0.1640
17507THY    CP124976   6.130   7.823   2.032 -0.0216  0.0942 -0.2069
17507THY    HP124977   6.079   7.821   1.935  0.5684 -0.2134 -2.2943
17507THY    CP224978   6.077   7.685   2.080 -0.2138 -0.4513 -0.3077
17507THY    HP224979   5.970   7.673   2.100  0.0135  0.7770 -0.4996
17507THY    HP324980   6.127   7.664   2.176 -1.4228 -0.2925 -2.8938
17507THY    HP424981   6.102   7.599   2.016  0.9764  2.1415 -2.0287
17507THY    CP324982   6.283   7.818   1.995  1.0232  0.3654 -0.3113
17507THY    HP524983   6.317   7.743   1.922  1.1391  0.4957 -0.3861
17507THY    HP624984   6.345   7.802   2.084 -1.0150  1.8440 -0.2642
17507THY    HP724985   6.305   7.916   1.949  0.7446 -0.1911 -0.5035
17507THY    CA324986   6.098   7.948   2.256  0.2892 -0.2641  0.5731
17507THY    HA324987   6.147   7.865   2.305  0.2432 -0.2928  0.5287
17507THY    CA424988   6.032   8.042   2.333  0.2727  0.4618  0.1979
17507THY    HA424989   6.039   8.029   2.441 -0.9821  0.2551 -2.8530
17507THY    CA524990   5.956   8.144   2.269 -0.0494  0.4672 -0.8269
17507THY    CM124991   5.876   8.260   2.332 -0.4445  0.2405  0.4836
17507THY    HM124992   5.871   8.342   2.259 -3.0214 -1.3206 -0.9370
17507THY    HM224993   5.928   8.287   2.425  0.2098  0.6523 -1.9044
17507THY    HM324994   5.770   8.243   2.354 -0.8677 -1.2503  1.0700
17507THY    CA624995   5.943   8.134   2.128 -0.3159  0.6691 -0.2148
17507THY    HA624996   5.875   8.200   2.075  2.5708 -5.1382 -1.2200
17508THY      O24997   7.196   0.323   2.650 -0.3729  0.1111  0.1787
17508THY     HO24998   7.238   0.345   2.734 -1.9732  0.7842  0.7876
17508THY    CA124999   7.081   0.404   2.635 -0.0292  0.3189 -0.0030
17508THY    CA225000   6.980   0.389   2.536  0.0190 -0.9426 -0.0920
17508THY    CP125001   7.008   0.291   2.418 -0.5260 -0.7286 -0.1096
17508THY    HP125002   7.044   0.199   2.466  1.4953  1.0025  1.4823
17508THY    CP225003   7.129   0.329   2.334 -0.1278  0.9977 -0.5441
17508THY    HP225004   7.215   0.374   2.386  0.6320  1.0533 -1.9964
17508THY    HP325005   7.103   0.407   2.262 -0.0488  1.2471 -0.2847
17508THY    HP425006   7.174   0.240   2.290 -0.3859  0.8671 -0.6089
17508THY    CP325007   6.884   0.260   2.333 -0.0378  0.7365  0.0762
17508THY    HP525008   6.895   0.168   2.274 -2.3136  0.8200 -0.3003
17508THY    HP625009   6.858   0.346   2.270 -0.9004  0.7658 -0.1544
17508THY    HP725010   6.790   0.248   2.388 -3.5461 -4.1669  1.7877
17508THY    CA325011   6.871   0.483   2.541  0.3917  0.4678  0.2303
17508THY    HA325012   6.793   0.486   2.465 -0.0987  0.8928 -1.1716
17508THY    CA425013   6.865   0.573   2.647 -0.7400 -0.9031 -0.3984
17508THY    HA425014   6.780   0.640   2.658 -0.0918  0.8563  0.1859
17508THY    CA525015   6.967   0.581   2.739  0.7506 -1.3241  0.1001
17508THY    CM125016   6.959   0.677   2.852 -0.0581 -0.8063 -0.2150
17508THY    HM125017   6.880   0.640   2.918  1.3498  1.0491 -0.0711
17508THY    HM225018   6.927   0.776   2.817 -0.8934 -1.4234 -0.6830
17508THY    HM325019   7.049   0.670   2.914 -0.4454 -0.2339 -0.1808
17508THY    CA625020   7.072   0.503   2.732 -0.1877  0.4538  0.4567
17508THY    HA625021   7.150   0.524   2.805 -0.8727  0.9969  1.1519
17509THY      O25022   4.164   5.271   5.022  0.3222 -0.0516  0.3972
17509THY     HO25023   4.182   5.333   4.950  0.2079 -0.1189  0.3525
17509THY    CA125024   4.072   5.177   4.983  0.4034  0.0902 -0.3063
17509THY    CA225025   3.995   5.103   5.073 -0.7855  0.6692 -0.0524
17509THY    CP125026   4.013   5.124   5.220  0.3441 -0.0899 -0.0595
17509THY    HP125027   4.108   5.170   5.250  0.0527  1.4772 -0.4145
17509THY    CP225028   4.013   4.998   5.294 -0.3825 -0.3424  0.1885
17509THY    HP225029   3.918   4.945   5.299  1.3159 -1.4361 -3.2591
17509THY    HP325030   4.049   5.024   5.394  0.5972 -0.9756  1.3873
17509THY    HP425031   4.089   4.936   5.245 -0.1907 -1.3869  1.2053
17509THY    CP325032   3.909   5.218   5.263  0.0726  0.2709  0.0984
17509THY    HP525033   3.902   5.297   5.187  1.6628 -0.2782 -0.2477
17509THY    HP625034   3.939   5.264   5.358  0.2662 -0.8198  2.3698
17509THY    HP725035   3.810   5.172   5.270  0.1874 -0.6197 -0.3113
17509THY    CA325036   3.898   5.009   5.020  0.4821 -0.7219  0.4513
17509THY    HA325037   3.826   4.963   5.087  0.7040 -1.1734 -0.5615
17509THY    CA425038   3.887   4.988   4.880  0.2230  0.2951 -0.2265
17509THY    HA425039   3.810   4.921   4.844  0.7205  0.8881 -1.1447
17509THY    CA525040   3.971   5.058   4.797  0.4118 -0.2928 -0.2240
17509THY    CM125041   3.944   5.051   4.647  0.2461 -0.0460 -0.0425
17509THY    HM125042   3.852   5.109   4.627 -0.5544 -0.6239 -1.4714
17509THY    HM225043   3.929   4.949   4.610 -2.2801 -3.7338  1.4463
17509THY    HM325044   4.025   5.095   4.588 -1.3968 -0.8044  2.1445
17509THY    CA625045   4.051   5.157   4.846 -0.1542  0.6819  0.7774
17509THY    HA625046   4.104   5.221   4.776 -0.4257  1.0529  1.4185
17510THY      O25047   5.308   0.356   2.053  0.1865 -0.2896 -1.2288
17510THY     HO25048   5.261   0.415   1.993 -0.5588  1.1544 -0.3036
17510THY    CA125049   5.437   0.403   2.052 -0.1029 -0.1643 -0.5120
17510THY    CA225050   5.535   0.369   2.143 -0.1466  0.1480  0.2743
17510THY    CP125051   5.501   0.269   2.256 -0.0949 -0.8594 -0.2249
17510THY    HP125052   5.396   0.237   2.254  0.2531 -0.3672 -1.4718
17510THY    CP225053   5.529   0.326   2.396  0.8371 -0.5788 -0.4087
17510THY    HP225054   5.634   0.352   2.413  0.4150  0.2132  0.8123
17510THY    HP325055   5.493   0.257   2.473 -1.1711  0.4832  1.6815
17510THY    HP425056   5.475   0.419   2.413  0.3605  2.3715 -1.1373
17510THY    CP325057   5.563   0.135   2.231 -0.6851 -0.5111  0.1819
17510THY    HP525058   5.669   0.148   2.208 -0.4288  1.6185  2.6094
17510THY    HP625059   5.509   0.081   2.152 -2.3077  0.6865 -0.0121
17510THY    HP725060   5.565   0.081   2.326  0.5541  0.4361  1.8064
17510THY    CA325061   5.670   0.413   2.124  0.1467 -0.7270 -0.4410
17510THY    HA325062   5.739   0.374   2.198 -0.7333  0.9332  1.0213
17510THY    CA425063   5.697   0.500   2.011  0.4455 -0.0166  0.5011
17510THY    HA425064   5.798   0.517   1.976  0.8524  0.7221 -0.3245
17510THY    CA525065   5.598   0.536   1.927 -0.1510  0.4573 -0.2203
17510THY    CM125066   5.622   0.634   1.814  0.0214 -0.2968 -0.0903
17510THY    HM125067   5.729   0.638   1.790  0.0684  0.0814  0.9626
17510THY    HM225068   5.600   0.732   1.857 -0.3062 -0.1484 -0.2293
17510THY    HM325069   5.571   0.603   1.722  1.1541 -0.5927 -1.1791
17510THY    CA625070   5.471   0.493   1.949  0.3999 -0.5134 -0.1974
17510THY    HA625071   5.392   0.531   1.884 -0.1281 -0.1118 -0.5844
17511THY      O25072   3.359   1.005   3.075  0.1900 -0.1227  0.1210
17511THY     HO25073   3.291   1.072   3.092 -1.5105 -2.5503 -0.8413
17511THY    CA125074   3.286   0.910   3.014  0.1933 -0.8390  0.7420
17511THY    CA225075   3.350   0.802   2.951 -0.6592 -0.3881 -0.2963
17511THY    CP125076   3.500   0.798   2.949 -0.8799  0.5870 -0.3711
17511THY    HP125077   3.544   0.847   3.037  0.8397  0.1820 -1.1225
17511THY    CP225078   3.568   0.878   2.827  0.3135 -0.1902 -0.3244
17511THY    HP225079   3.674   0.899   2.845  0.2588 -0.2813  0.0253
17511THY    HP325080   3.523   0.977   2.815 -0.9923  0.6800 -0.7847
17511THY    HP425081   3.558   0.828   2.730 -1.9322 -1.4991  2.3970
17511THY    CP325082   3.551   0.654   2.944  0.3690  0.0804 -0.9937
17511THY    HP525083   3.658   0.634   2.932 -0.0005 -2.2460 -1.9799
17511THY    HP625084   3.507   0.614   2.852 -0.2669  0.2527 -0.6963
17511THY    HP725085   3.515   0.596   3.030  1.1159  0.5126 -0.8260
17511THY    CA325086   3.264   0.704   2.900 -0.0367 -0.1946  0.3905
17511THY    HA325087   3.305   0.613   2.856  1.7811  0.6889  0.7476
17511THY    CA425088   3.128   0.727   2.879  0.3377 -0.3518 -0.2548
17511THY    HA425089   3.062   0.656   2.831 -1.0141  1.1776 -0.0827
17511THY    CA525090   3.072   0.835   2.945 -0.8029 -0.1386 -0.1410
17511THY    CM125091   2.928   0.868   2.914 -0.0728 -0.1891 -0.1238
17511THY    HM125092   2.921   0.892   2.807  0.8549 -0.0973  0.5951
17511THY    HM225093   2.892   0.952   2.975  0.3983  0.9903 -0.7604
17511THY    HM325094   2.868   0.780   2.940 -0.0557  2.6917  0.6094
17511THY    CA625095   3.150   0.923   3.012 -0.5236  0.0305  0.1665
17511THY    HA625096   3.104   1.014   3.047  0.0362  0.3695  0.3203
17512THY      O25097   8.003   6.521   7.540 -0.6326 -0.1460 -0.3581
17512THY     HO25098   8.088   6.569   7.537 -0.5980  1.0401 -0.3247
17512THY    CA125099   7.917   6.595   7.464  0.1147  0.8622  0.0301
17512THY    CA225100   7.781   6.563   7.463  0.0016  0.3053 -0.2856
17512THY    CP125101   7.719   6.435   7.536 -0.3580 -0.4792  0.4199
17512THY    HP125102   7.790   6.381   7.599 -1.3182 -0.4894 -0.9136
17512THY    CP225103   7.668   6.333   7.429 -0.1973  0.2329  0.5045
17512THY    HP225104   7.746   6.302   7.359 -0.4205  0.7025 -1.2175
17512THY    HP325105   7.584   6.379   7.376  1.6826 -4.9538 -1.3493
17512THY    HP425106   7.619   6.246   7.473 -1.7466 -2.2150  0.0628
17512THY    CP325107   7.600   6.472   7.624 -0.1471 -0.0927 -0.0971
17512THY    HP525108   7.511   6.518   7.579 -1.5872  1.2578 -1.4283
17512THY    HP625109   7.635   6.545   7.698 -0.9829  0.3807 -0.1571
17512THY    HP725110   7.572   6.377   7.672  0.6083 -1.0474 -0.8206
17512THY    CA325111   7.697   6.640   7.375 -0.0749 -0.0139  0.4249
17512THY    HA325112   7.594   6.609   7.361  0.5910 -1.5655 -1.2236
17512THY    CA425113   7.753   6.758   7.317  0.0730 -0.0540  0.5962
17512THY    HA425114   7.680   6.815   7.262 -2.5597  1.7421 -0.8064
17512THY    CA525115   7.885   6.788   7.318  0.4042  0.0731 -0.7770
17512THY    CM125116   7.942   6.904   7.242 -0.0295  0.2653  0.0604
17512THY    HM125117   8.030   6.880   7.181 -0.3396  0.4706 -1.7136
17512THY    HM225118   7.959   6.989   7.309 -0.1676 -0.9365  1.0752
17512THY    HM325119   7.862   6.938   7.174  0.1908 -0.1379 -0.2148
17512THY    CA625120   7.969   6.710   7.395 -0.1826 -0.6091  0.9085
17512THY    HA625121   8.077   6.719   7.392 -0.0373 -0.0214 -0.3581
17513THY      O25122   5.643   6.220   3.545  0.1126 -0.2496 -0.2907
17513THY     HO25123   5.667   6.130   3.571  0.6563 -1.5392 -0.5425
17513THY    CA125124   5.742   6.265   3.464  0.4891 -0.5456 -0.2259
17513THY    CA225125   5.734   6.380   3.383  0.4049 -0.3762  0.5813
17513THY    CP125126   5.615   6.466   3.382  0.9062 -1.3337  0.1757
17513THY    HP125127   5.539   6.425   3.449 -0.4424 -2.2162  1.1346
17513THY    CP225128   5.548   6.472   3.247  0.1292 -0.0846 -0.2434
17513THY    HP225129   5.612   6.527   3.176  0.9514  1.2667  0.5878
17513THY    HP325130   5.460   6.537   3.248  0.8783  1.2923  0.7981
17513THY    HP425131   5.531   6.375   3.199  0.8057  1.5384 -1.1863
17513THY    CP325132   5.647   6.610   3.438  0.1815 -0.3330  0.3537
17513THY    HP525133   5.706   6.597   3.529 -0.0162 -0.2490  0.0546
17513THY    HP625134   5.566   6.680   3.461 -1.1083  0.8491 -1.4584
17513THY    HP725135   5.723   6.656   3.374  1.8399  2.3991  1.6916
17513THY    CA325136   5.838   6.405   3.285  0.7340 -0.4458 -0.4196
17513THY    HA325137   5.838   6.490   3.218  0.0195  0.3771  0.2458
17513THY    CA425138   5.946   6.312   3.276  0.2454  0.0928 -0.9359
17513THY    HA425139   6.018   6.320   3.196 -1.7279 -1.8101 -1.1908
17513THY    CA525140   5.962   6.211   3.371 -0.2591 -0.4819 -1.1250
17513THY    CM125141   6.085   6.133   3.390  0.2510 -0.1469 -0.1704
17513THY    HM125142   6.115   6.099   3.489  3.3989 -0.2892  1.8380
17513THY    HM225143   6.164   6.204   3.365 -0.6400 -0.1654  0.8306
17513THY    HM325144   6.077   6.053   3.315  0.3442 -0.0702 -0.2501
17513THY    CA625145   5.860   6.193   3.465 -0.3551  0.7677  0.5899
17513THY    HA625146   5.860   6.106   3.530 -0.1427 -0.2563 -0.1955
17514THY      O25147   0.555   1.234   3.394  0.2608 -0.2734  0.4666
17514THY     HO25148   0.602   1.315   3.366  3.0181  3.1937  0.3444
17514THY    CA125149   0.628   1.125   3.356  0.2890  1.0599  0.5246
17514THY    CA225150   0.573   1.002   3.314 -0.3164  0.1037 -0.1240
17514THY    CP125151   0.422   0.970   3.345 -0.4019 -0.3794  0.1346
17514THY    HP125152   0.382   1.034   3.424 -1.9422  0.1851 -1.4215
17514THY    CP225153   0.411   0.831   3.391 -0.0122 -0.1898  0.0878
17514THY    HP225154   0.427   0.755   3.314  0.5749  0.4518 -0.4478
17514THY    HP325155   0.311   0.827   3.435 -0.3401 -0.6851  1.8550
17514THY    HP425156   0.474   0.819   3.481 -0.4926  0.0468 -0.7022
17514THY    CP325157   0.338   0.987   3.222  0.6064  0.4634  0.1294
17514THY    HP525158   0.350   1.085   3.173 -0.7750 -0.2735 -0.0494
17514THY    HP625159   0.233   0.984   3.252  0.5778  0.4774  1.0312
17514THY    HP725160   0.358   0.910   3.147 -3.8562 -3.1522  2.0152
17514THY    CA325161   0.655   0.914   3.235  0.1600 -1.2580  0.0252
17514THY    HA325162   0.614   0.819   3.202  1.8759 -0.5788 -1.0009
17514THY    CA425163   0.789   0.944   3.224 -0.3013  0.5396 -0.1774
17514THY    HA425164   0.854   0.876   3.170 -0.2949  0.0262  0.2367
17514THY    CA525165   0.847   1.054   3.286 -0.4333 -0.1631  0.1389
17514THY    CM125166   0.998   1.067   3.271 -0.3196 -0.0919 -0.3011
17514THY    HM125167   1.021   1.172   3.250  2.9231  0.2213 -0.8381
17514THY    HM225168   1.033   1.002   3.190 -2.8637 -0.0418 -1.8652
17514THY    HM325169   1.057   1.039   3.360  1.7511 -1.5010 -0.6293
17514THY    CA625170   0.762   1.154   3.338  1.0078 -0.3615 -0.2220
17514THY    HA625171   0.805   1.248   3.371  1.5035  3.2571 -1.5471
17515THY      O25172   0.617   7.216   2.794 -0.0617  0.0485  0.4832
17515THY     HO25173   0.568   7.288   2.836  0.6776  1.0646  0.4086
17515THY    CA125174   0.715   7.190   2.882 -0.0506  0.0588  0.4550
17515THY    CA225175   0.817   7.086   2.855  0.3056 -0.6714 -0.2624
17515THY    CP125176   0.817   7.016   2.722 -1.3363  0.4442 -0.3804
17515THY    HP125177   0.756   7.070   2.649  0.2422 -0.1249  0.6715
17515THY    CP225178   0.748   6.877   2.744 -0.0238  0.2538 -0.6959
17515THY    HP225179   0.641   6.894   2.755 -0.0144  0.5865 -0.8402
17515THY    HP325180   0.789   6.826   2.832 -1.9739  1.2457 -0.6061
17515THY    HP425181   0.766   6.821   2.651 -1.2429 -0.9026  0.7382
17515THY    CP325182   0.956   7.002   2.672 -0.2530 -0.8425  0.2539
17515THY    HP525183   1.007   7.097   2.692  0.2639  3.8621 -0.7671
17515THY    HP625184   0.959   6.970   2.567 -0.2258 -0.9637  0.6488
17515THY    HP725185   1.013   6.933   2.736  0.2855 -1.0724  0.4755
17515THY    CA325186   0.916   7.062   2.956  0.2582 -0.2123  0.1175
17515THY    HA325187   1.003   6.998   2.947 -0.0809  0.3497 -0.4310
17515THY    CA425188   0.917   7.141   3.071  0.7532  0.7227 -0.0820
17515THY    HA425189   0.992   7.120   3.148 -1.8733  3.3349 -0.5188
17515THY    CA525190   0.820   7.236   3.096 -0.5107 -0.2946 -0.1274
17515THY    CM125191   0.813   7.285   3.237  0.3654 -0.1448 -0.5616
17515THY    HM125192   0.914   7.273   3.279 -0.0621  0.8647 -0.7266
17515THY    HM225193   0.740   7.232   3.299 -0.8473 -1.2202 -0.2066
17515THY    HM325194   0.786   7.391   3.239  1.7406 -0.7834 -0.1729
17515THY    CA625195   0.714   7.251   3.004  0.3710  0.4650 -0.9483
17515THY    HA625196   0.631   7.315   3.034 -0.5742  0.9202 -2.3499
17516THY      O25197   8.127   1.476   3.917 -0.1397  0.5036 -0.1306
17516THY     HO25198   8.106   1.525   3.835  1.4792  1.5146  2.4767
17516THY    CA125199   8.047   1.531   4.009  0.3821 -0.5489 -0.4621
17516THY    CA225200   8.047   1.480   4.141 -0.2810  0.2520 -0.2641
17516THY    CP125201   8.148   1.371   4.182 -0.7578  0.2182  0.4788
17516THY    HP125202   8.227   1.353   4.109 -1.3411 -0.2073 -0.3962
17516THY    CP225203   8.068   1.244   4.201 -0.4426 -0.3056 -0.0681
17516THY    HP225204   8.035   1.216   4.101 -0.9549 -0.5741  1.4103
17516THY    HP325205   7.986   1.258   4.273 -0.1265  0.4566 -1.7927
17516THY    HP425206   8.136   1.163   4.232  2.2895 -0.8209  1.9119
17516THY    CP325207   8.223   1.416   4.305  0.1337 -0.0309  0.0998
17516THY    HP525208   8.297   1.339   4.333  0.3869  1.3117  0.8071
17516THY    HP625209   8.158   1.426   4.392 -1.8756 -1.6624  2.5372
17516THY    HP725210   8.262   1.516   4.285 -1.6067 -0.7793  0.6645
17516THY    CA325211   7.958   1.530   4.232 -0.1290 -0.5326 -0.0908
17516THY    HA325212   7.958   1.493   4.334 -1.3206 -0.7066 -0.6128
17516THY    CA425213   7.870   1.640   4.193 -0.5973 -1.0376  0.4313
17516THY    HA425214   7.812   1.678   4.277  0.6826  1.1492 -2.0311
17516THY    CA525215   7.863   1.686   4.058 -0.2870  0.3287 -0.2960
17516THY    CM125216   7.784   1.814   4.029 -0.2765 -0.2298  0.1637
17516THY    HM125217   7.713   1.838   4.109 -0.9906 -1.1356  1.2064
17516THY    HM225218   7.706   1.798   3.953 -0.6257 -0.1370  1.3259
17516THY    HM325219   7.839   1.901   3.990 -1.1058 -0.8510  0.4284
17516THY    CA625220   7.956   1.636   3.968 -0.4120  0.1574  0.1189
17516THY    HA625221   7.952   1.681   3.869  0.3534  0.6167  1.2574
17517THY      O25222   6.523   2.322   5.055  0.3161 -0.9137  0.3511
17517THY     HO25223   6.489   2.312   4.965  0.7848 -1.2456  1.6037
17517THY    CA125224   6.481   2.216   5.129  0.1947  0.0735 -0.6070
17517THY    CA225225   6.504   2.197   5.267  0.1645 -0.4212 -0.3867
17517THY    CP125226   6.562   2.312   5.347 -1.0107  0.3483  0.7318
17517THY    HP125227   6.584   2.399   5.285  0.2386  1.5713  1.3372
17517THY    CP225228   6.700   2.287   5.415  0.0628  0.0882 -0.2421
17517THY    HP225229   6.777   2.267   5.339  0.1555 -0.4106  1.7538
17517THY    HP325230   6.699   2.199   5.480 -1.2799 -0.3482 -0.5698
17517THY    HP425231   6.747   2.362   5.480  0.6962 -1.1445  0.4521
17517THY    CP325232   6.453   2.354   5.445  0.4327  0.4180  0.2986
17517THY    HP525233   6.453   2.462   5.464 -0.8441 -0.2940  0.4416
17517THY    HP625234   6.472   2.299   5.538  0.7572  1.1204  1.5553
17517THY    HP725235   6.352   2.325   5.416  0.8274 -0.6334 -0.0934
17517THY    CA325236   6.469   2.075   5.332 -0.1086  0.4585 -0.7424
17517THY    HA325237   6.483   2.073   5.439 -2.0571  0.7640  0.0932
17517THY    CA425238   6.418   1.972   5.255  0.5045  0.5504  0.5093
17517THY    HA425239   6.395   1.877   5.302  0.4529  1.7442  1.0798
17517THY    CA525240   6.403   1.989   5.118 -1.2642 -0.1473 -0.3214
17517THY    CM125241   6.362   1.867   5.041 -0.5567  0.0690 -0.2811
17517THY    HM125242   6.425   1.785   5.077 -2.4404  2.2276 -0.8948
17517THY    HM225243   6.378   1.886   4.934  0.9726  0.7346  2.9507
17517THY    HM325244   6.259   1.838   5.068 -0.8186  0.0664  0.6007
17517THY    CA625245   6.435   2.107   5.056  0.0405  0.3301  0.0677
17517THY    HA625246   6.440   2.123   4.948 -0.1579  0.4932  1.3558
17518THY      O25247   6.420   6.638   2.017  0.0055 -0.7817 -0.2908
17518THY     HO25248   6.460   6.609   2.101  1.0074 -0.9807  0.4659
17518THY    CA125249   6.323   6.722   2.059 -0.3706  0.2811  0.2538
17518THY    CA225250   6.200   6.742   1.983 -0.0437  0.7454 -0.2842
17518THY    CP125251   6.174   6.648   1.865  0.6001  0.4873 -0.3272
17518THY    HP125252   6.262   6.615   1.809  0.2673 -0.5295  0.4634
17518THY    CP225253   6.074   6.704   1.758 -0.3444  0.1342 -0.0127
17518THY    HP225254   6.114   6.793   1.708  0.8363  1.7535  0.4049
17518THY    HP325255   5.970   6.709   1.791 -0.6306  0.1534 -3.6676
17518THY    HP425256   6.068   6.630   1.677 -2.4823 -0.0257  0.2820
17518THY    CP325257   6.108   6.521   1.922 -0.3201 -0.9847 -0.3682
17518THY    HP525258   6.094   6.447   1.843 -3.6034  0.2527 -1.2649
17518THY    HP625259   6.007   6.532   1.963  0.1315  0.6152 -1.7135
17518THY    HP725260   6.172   6.484   2.004  0.3703 -1.7672 -0.9483
17518THY    CA325261   6.107   6.834   2.023 -0.3641 -0.7333 -0.6473
17518THY    HA325262   6.015   6.851   1.967 -0.5179 -0.0974  0.7787
17518THY    CA425263   6.136   6.920   2.133 -0.4347  0.1046 -0.5145
17518THY    HA425264   6.079   7.007   2.163  1.9106  0.2121  1.0886
17518THY    CA525265   6.249   6.894   2.205  0.3893  0.5075  0.1444
17518THY    CM125266   6.275   6.974   2.331 -0.1450  0.3798 -0.3013
17518THY    HM125267   6.262   6.910   2.418  1.7095  0.6022 -0.4288
17518THY    HM225268   6.200   7.054   2.346 -0.8389  2.5170 -1.2808
17518THY    HM325269   6.374   7.020   2.330 -0.4082 -2.3646  0.3934
17518THY    CA625270   6.351   6.803   2.163  0.0703  0.4625  0.4078
17518THY    HA625271   6.444   6.798   2.220  1.3830 -1.5454  0.8102
17519THY      O25272   8.382   4.153   5.752 -0.2819  0.5088  0.5257
17519THY     HO25273   8.452   4.216   5.778  1.2744  1.9614 -1.6619
17519THY    CA125274   8.322   4.130   5.874 -0.3588  1.0928 -0.1213
17519THY    CA225275   8.203   4.051   5.871  0.6506 -0.4703 -0.0999
17519THY    CP125276   8.144   3.991   5.745 -0.0198 -0.4993 -0.0666
17519THY    HP125277   8.211   3.991   5.658  0.3893 -0.2861 -2.7658
17519THY    CP225278   8.015   4.065   5.701  0.5869 -0.0987  0.3514
17519THY    HP225279   8.025   4.170   5.669  0.1337  0.7785  0.6726
17519THY    HP325280   7.933   4.069   5.773  0.3265 -0.3799  0.1776
17519THY    HP425281   7.959   4.017   5.620  1.3701  0.1356 -0.9898
17519THY    CP325282   8.106   3.841   5.769  0.1372  0.2575 -0.8695
17519THY    HP525283   8.026   3.829   5.843 -1.8478 -1.9130 -1.7412
17519THY    HP625284   8.187   3.778   5.808  0.6199 -1.3725 -1.3086
17519THY    HP725285   8.069   3.795   5.677 -0.9022 -0.1933  0.8018
17519THY    CA325286   8.131   4.030   5.992 -0.2732 -0.1481 -0.7638
17519THY    HA325287   8.027   3.999   5.986  0.0959 -1.9415 -1.8406
17519THY    CA425288   8.198   4.067   6.111 -0.1385 -0.4621  0.0379
17519THY    HA425289   8.152   4.060   6.209  0.8915  0.3906  3.2201
17519THY    CA525290   8.319   4.139   6.112 -0.0083  0.6145 -0.3742
17519THY    CM125291   8.369   4.211   6.238 -0.2095 -0.0278 -0.0879
17519THY    HM125292   8.473   4.190   6.266  0.0130 -0.6993  0.0950
17519THY    HM225293   8.319   4.196   6.335  1.2269  0.7138 -0.3087
17519THY    HM325294   8.372   4.318   6.213 -2.3791  0.2836  0.1000
17519THY    CA625295   8.375   4.172   5.990 -0.3525  0.3438  0.0436
17519THY    HA625296   8.464   4.233   5.989  0.7415  2.6370 -1.3629
17520THY      O25297   8.660   8.664   3.059  0.0178 -0.0561  0.9286
17520THY     HO25298   8.595   8.663   3.131  0.3257  0.2425  1.7779
17520THY    CA125299   8.703   8.537   3.039  0.1857  0.3153 -0.6694
17520THY    CA225300   8.770   8.505   2.928  0.6893 -0.0867  0.1307
17520THY    CP125301   8.807   8.603   2.821 -0.3975 -0.0962  0.0919
17520THY    HP125302   8.812   8.702   2.869 -1.1031  0.3220 -0.0641
17520THY    CP225303   8.685   8.625   2.733 -0.5859 -0.0810 -0.1462
17520THY    HP225304   8.611   8.670   2.800  0.2363  0.5190  0.3515
17520THY    HP325305   8.644   8.529   2.702 -0.1434  1.3019 -0.8152
17520THY    HP425306   8.695   8.689   2.644 -0.4989  0.2101  0.2507
17520THY    CP325307   8.933   8.581   2.733 -0.5697  0.1510 -0.1901
17520THY    HP525308   8.950   8.669   2.670 -1.5550  0.7982  0.4808
17520THY    HP625309   8.912   8.490   2.674 -0.9041  0.1354 -0.1015
17520THY    HP725310   9.019   8.553   2.795 -0.7012  0.9589  1.1191
17520THY    CA325311   8.802   8.368   2.903  0.4510  0.4111 -0.6425
17520THY    HA325312   8.853   8.333   2.814 -1.0879 -1.2145  1.0766
17520THY    CA425313   8.775   8.273   3.001  0.0576  0.1221 -0.6015
17520THY    HA425314   8.820   8.176   2.983 -1.4024  0.5949 -1.4030
17520THY    CA525315   8.706   8.308   3.112  0.7070  0.2335 -0.1478
17520THY    CM125316   8.677   8.213   3.218  0.0235  0.7204 -0.2542
17520THY    HM125317   8.759   8.141   3.222 -0.7227  0.9558 -1.1100
17520THY    HM225318   8.585   8.156   3.200 -1.5318  0.6898  2.1241
17520THY    HM325319   8.658   8.266   3.313 -0.0540 -0.0002  1.0381
17520THY    CA625320   8.668   8.442   3.131  0.6085 -0.1487  0.6071
17520THY    HA625321   8.614   8.465   3.222 -2.0078 -1.2304 -0.7682
17521THY      O25322   4.837   8.045   4.097  0.7392 -0.2283  0.2894
17521THY     HO25323   4.860   8.137   4.074  1.6511  1.8282  0.6167
17521THY    CA125324   4.909   7.946   4.028 -0.0401 -0.8043 -0.3579
17521THY    CA225325   4.859   7.816   4.018  0.6919 -0.3566 -0.2013
17521THY    CP125326   4.717   7.782   4.063 -0.5563 -0.0970 -0.7705
17521THY    HP125327   4.662   7.871   4.031  0.7688  2.7551  1.2327
17521THY    CP225328   4.706   7.786   4.222 -0.4460  0.0995  0.1650
17521THY    HP225329   4.769   7.711   4.272 -0.4507  0.8251  0.6385
17521THY    HP325330   4.602   7.774   4.251 -0.1532  1.2203  0.2646
17521THY    HP425331   4.734   7.881   4.269  0.1386  0.0125  0.0430
17521THY    CP325332   4.664   7.655   4.014 -0.0558  0.2402  0.7708
17521THY    HP525333   4.560   7.653   4.049 -0.0968  0.2269  2.0941
17521THY    HP625334   4.721   7.572   4.058 -0.1615  0.5169  0.8442
17521THY    HP725335   4.648   7.654   3.906 -2.6255  0.5322 -0.6246
17521THY    CA325336   4.939   7.716   3.958 -0.2641  0.0285  1.0550
17521THY    HA325337   4.901   7.615   3.957  0.6618 -1.8260  0.6696
17521THY    CA425338   5.068   7.753   3.907  0.2647 -0.2249  0.6638
17521THY    HA425339   5.130   7.683   3.852 -0.0036 -0.1589  0.3702
17521THY    CA525340   5.118   7.881   3.931 -0.3608 -0.0923 -1.3227
17521THY    CM125341   5.260   7.921   3.885 -0.1041 -0.1675 -0.4366
17521THY    HM125342   5.270   8.026   3.857  1.7925  0.0555 -0.5371
17521THY    HM225343   5.276   7.867   3.791 -3.5446 -0.4840 -1.1422
17521THY    HM325344   5.335   7.896   3.961  2.5040 -1.6205  2.3156
17521THY    CA625345   5.042   7.981   3.991  0.1429 -0.4182  0.4759
17521THY    HA625346   5.082   8.081   4.005  1.3070  0.9649 -0.1513
17522THY      O25347   7.112   1.915   5.648  0.3073 -0.2377  0.3210
17522THY     HO25348   7.191   1.859   5.646  1.2519  0.3688  1.5834
17522THY    CA125349   7.053   1.922   5.769  0.3314 -0.0322 -0.6127
17522THY    CA225350   7.019   2.043   5.831  0.2896  0.2267 -0.7288
17522THY    CP125351   7.027   2.172   5.762  0.1485  0.2993  0.1667
17522THY    HP125352   7.053   2.154   5.657  2.0064  0.7032  0.3503
17522THY    CP225353   7.130   2.274   5.829  1.0735  0.2825  0.7090
17522THY    HP225354   7.128   2.266   5.938  3.3266  0.3388  0.2011
17522THY    HP325355   7.115   2.376   5.791 -0.1892 -0.3931  0.2917
17522THY    HP425356   7.231   2.243   5.799  0.7470 -1.8015  1.4960
17522THY    CP325357   6.890   2.243   5.762  0.3688 -0.0159  0.0221
17522THY    HP525358   6.851   2.272   5.860  0.1247 -0.3805  0.9702
17522THY    HP625359   6.813   2.190   5.705  1.1667 -1.3526  0.2428
17522THY    HP725360   6.896   2.335   5.701 -3.1428 -0.9551 -0.2360
17522THY    CA325361   6.978   2.039   5.965  0.3421  0.0303 -0.2411
17522THY    HA325362   6.954   2.129   6.021 -1.8707  0.8733 -1.2654
17522THY    CA425363   6.947   1.921   6.037 -0.4868  0.3682  0.0999
17522THY    HA425364   6.922   1.914   6.142  2.0370  1.0011 -0.2337
17522THY    CA525365   6.967   1.801   5.967 -0.1563 -0.1055  0.0996
17522THY    CM125366   6.955   1.673   6.034  0.1947 -0.3595 -0.6762
17522THY    HM125367   6.983   1.691   6.138 -1.5140 -0.2669  1.9793
17522THY    HM225368   7.014   1.592   5.990 -1.6671  1.3997 -3.1529
17522THY    HM325369   6.850   1.641   6.032  0.1304  0.8678 -0.5950
17522THY    CA625370   7.017   1.803   5.833 -0.6255  0.4455  0.2429
17522THY    HA625371   7.028   1.713   5.773 -1.8396 -2.2805  1.7743
17523THY      O25372   6.062   7.749   3.373 -0.0041  0.1035 -0.2352
17523THY     HO25373   6.036   7.758   3.467  0.7081  0.4041 -1.1704
17523THY    CA125374   6.146   7.852   3.341  0.5279  0.0934  0.0776
17523THY    CA225375   6.202   7.853   3.209 -0.4094 -0.1436  0.0294
17523THY    CP125376   6.160   7.751   3.108  0.3266  0.0994  0.1262
17523THY    HP125377   6.102   7.667   3.147  1.0361  1.3175  0.1809
17523THY    CP225378   6.284   7.686   3.041  0.0620 -0.0000  0.7252
17523THY    HP225379   6.338   7.769   2.993 -0.5062  1.2462  1.8420
17523THY    HP325380   6.261   7.617   2.958  0.8199 -0.2172  0.7244
17523THY    HP425381   6.356   7.642   3.110  0.3759 -1.0445 -0.4814
17523THY    CP325382   6.078   7.815   2.994 -0.6913  0.4206 -0.3031
17523THY    HP525383   6.045   7.736   2.926 -0.8631 -0.1801  0.2741
17523THY    HP625384   6.143   7.886   2.942 -1.0218 -0.7805 -0.8678
17523THY    HP725385   5.986   7.856   3.038 -0.4467 -0.0645  0.8037
17523THY    CA325386   6.284   7.961   3.179 -0.2639 -0.0001  0.2364
17523THY    HA325387   6.337   7.963   3.084 -0.5392 -0.1480  0.8121
17523THY    CA425388   6.303   8.060   3.274 -0.1529  0.0144 -0.0507
17523THY    HA425389   6.363   8.148   3.250  1.7397  1.5506 -0.8509
17523THY    CA525390   6.235   8.061   3.397  0.2652 -0.0658 -0.3988
17523THY    CM125391   6.256   8.166   3.508 -0.0364  0.0489 -0.2408
17523THY    HM125392   6.305   8.249   3.458 -0.2222 -1.3957 -0.9664
17523THY    HM225393   6.315   8.124   3.590  1.5510 -1.3200 -0.7985
17523THY    HM325394   6.165   8.211   3.550 -0.8362 -0.5790 -1.2125
17523THY    CA625395   6.159   7.953   3.433  0.5708  0.0299  0.0877
17523THY    HA625396   6.100   7.959   3.524  0.1219 -0.3498  2.2666
17524THY      O25397   2.749   1.869   7.674 -0.2767 -0.5226 -0.1736
17524THY     HO25398   2.727   1.935   7.605 -3.7698  0.1765 -0.3950
17524THY    CA125399   2.665   1.763   7.660 -0.2832  0.3638  0.0810
17524THY    CA225400   2.628   1.681   7.776  0.1486  0.7062  0.2486
17524THY    CP125401   2.671   1.709   7.921 -0.2417 -0.2994  0.4124
17524THY    HP125402   2.749   1.785   7.926 -0.8009  0.6413  0.9424
17524THY    CP225403   2.733   1.577   7.981 -0.3054  0.6368 -0.1303
17524THY    HP225404   2.807   1.551   7.905  0.8687  1.2827  1.2038
17524THY    HP325405   2.669   1.489   7.994  2.2891 -0.6504 -2.3353
17524THY    HP425406   2.792   1.582   8.074  0.2159  0.3341 -0.5128
17524THY    CP325407   2.558   1.775   7.996  0.0763 -0.1012  0.0230
17524THY    HP525408   2.599   1.825   8.085  1.2523  0.8711 -2.4981
17524THY    HP625409   2.479   1.708   8.031  1.6062  1.3124 -1.1271
17524THY    HP725410   2.531   1.849   7.919  4.8283 -1.8704  0.3269
17524THY    CA325411   2.537   1.567   7.751 -0.5264  0.4398 -0.1495
17524THY    HA325412   2.517   1.503   7.836  0.0417  0.7192  0.0310
17524THY    CA425413   2.480   1.550   7.621  0.1497  0.3200 -0.3726
17524THY    HA425414   2.416   1.465   7.600  0.8385 -2.0260 -0.3812
17524THY    CA525415   2.528   1.632   7.513 -0.2847 -0.6957  0.0209
17524THY    CM125416   2.482   1.632   7.369  0.3859 -0.3312  0.2297
17524THY    HM125417   2.417   1.720   7.355  0.5845  0.9169  0.5951
17524THY    HM225418   2.415   1.551   7.338 -1.1869  1.8025  0.6040
17524THY    HM325419   2.559   1.636   7.292  1.0824  0.3140 -0.4682
17524THY    CA625420   2.609   1.745   7.537  0.8335  0.0891 -0.1347
17524THY    HA625421   2.646   1.797   7.450  1.3181 -0.5284 -1.4583
17525THY      O25422   7.406   6.513   4.473 -0.5361 -0.0020 -0.6357
17525THY     HO25423   7.448   6.492   4.388  0.9606  0.6115 -0.2356
17525THY    CA125424   7.280   6.470   4.466  0.7727 -0.2336 -0.4916
17525THY    CA225425   7.205   6.425   4.581  0.7195 -0.8239 -0.0841
17525THY    CP125426   7.269   6.417   4.716  0.1084 -0.5525  0.0383
17525THY    HP125427   7.373   6.452   4.711  0.9197 -0.9759 -2.2598
17525THY    CP225428   7.279   6.270   4.757  0.0210 -0.3692  0.0545
17525THY    HP225429   7.316   6.209   4.675 -0.3517 -0.5875  0.1232
17525THY    HP325430   7.185   6.227   4.793  0.8221  2.0364  0.1426
17525THY    HP425431   7.345   6.268   4.845 -1.4112  0.7336 -1.4412
17525THY    CP325432   7.201   6.499   4.826  0.3647  0.6418 -0.2382
17525THY    HP525433   7.102   6.455   4.841  1.0233  2.3001 -1.2858
17525THY    HP625434   7.215   6.605   4.803  1.0919  1.6566 -0.0914
17525THY    HP725435   7.256   6.488   4.921  0.8776  0.7208  2.3962
17525THY    CA325436   7.066   6.399   4.556 -0.5118 -0.0506  0.2207
17525THY    HA325437   6.993   6.380   4.634  1.2110  1.3168 -1.0635
17525THY    CA425438   7.015   6.404   4.426  0.2181  0.0876 -0.0401
17525THY    HA425439   6.908   6.398   4.407  0.4461 -2.4302  2.1758
17525THY    CA525440   7.099   6.430   4.315 -0.1273 -0.7554 -0.0038
17525THY    CM125441   7.030   6.434   4.181 -0.1880  0.1595  0.2618
17525THY    HM125442   7.099   6.431   4.095 -0.6762 -0.2174 -1.9340
17525THY    HM225443   6.972   6.526   4.174  0.4143  3.3161  1.0151
17525THY    HM325444   6.962   6.352   4.156 -1.0008 -0.3921  1.0854
17525THY    CA625445   7.226   6.472   4.333 -0.9778  0.4425 -1.0702
17525THY    HA625446   7.288   6.501   4.249 -0.0353  2.0083  1.8844
17526THY      O25447   3.230   3.861   6.576 -0.3412 -0.3910  0.2456
17526THY     HO25448   3.188   3.782   6.613 -1.8152 -1.1912  0.6394
17526THY    CA125449   3.158   3.962   6.639  0.2954  1.3829 -0.2657
17526THY    CA225450   3.172   4.091   6.592  0.1142 -0.1996  0.3142
17526THY    CP125451   3.271   4.120   6.483 -0.5275 -0.0118 -0.0195
17526THY    HP125452   3.357   4.057   6.507 -1.4573 -1.3023 -1.8649
17526THY    CP225453   3.324   4.267   6.492 -0.1461  0.3127 -0.2986
17526THY    HP225454   3.348   4.302   6.593  0.3248 -0.4413  1.7087
17526THY    HP325455   3.253   4.339   6.449 -0.0523 -0.7396 -0.8139
17526THY    HP425456   3.416   4.284   6.435 -1.3229 -1.4795  0.4361
17526THY    CP325457   3.217   4.096   6.336  0.1836 -0.2225 -0.0082
17526THY    HP525458   3.271   4.144   6.254 -0.1724 -0.3058  0.2573
17526THY    HP625459   3.116   4.138   6.326 -0.0266  0.8374 -0.2371
17526THY    HP725460   3.210   3.990   6.311 -0.4109 -1.5003  0.3070
17526THY    CA325461   3.097   4.195   6.665 -0.1397  0.8702  0.4395
17526THY    HA325462   3.106   4.299   6.638  0.3254 -0.7678 -0.0083
17526THY    CA425463   2.996   4.151   6.755  0.1483 -0.0001 -0.2552
17526THY    HA425464   2.918   4.214   6.796 -0.8384  0.8405 -1.9805
17526THY    CA525465   2.985   4.012   6.787  0.9313 -0.6339 -0.2492
17526THY    CM125466   2.895   3.954   6.900 -0.3269 -0.2571  0.0322
17526THY    HM125467   2.924   3.990   6.999 -0.5783  0.5493 -1.8658
17526THY    HM225468   2.911   3.847   6.919  2.7576  2.8531  0.8572
17526THY    HM325469   2.792   3.973   6.869 -0.9544  1.5778 -0.1579
17526THY    CA625470   3.059   3.921   6.724  0.6618 -0.4820 -0.3126
17526THY    HA625471   3.039   3.818   6.755 -1.5573  1.9703  0.7200
17527THY      O25472   8.119   8.747   4.403  0.1548 -0.3875 -0.1144
17527THY     HO25473   8.198   8.726   4.457 -0.0828  0.4922  1.1265
17527THY    CA125474   8.039   8.829   4.468  0.2062 -0.3723 -0.2843
17527THY    CA225475   7.908   8.869   4.429  0.1798  0.5408 -0.1505
17527THY    CP125476   7.855   8.818   4.295 -0.4285  0.1915 -0.3421
17527THY    HP125477   7.930   8.773   4.229  0.3215  0.7824  0.0254
17527THY    CP225478   7.808   8.932   4.204  0.2254  0.5206 -0.4384
17527THY    HP225479   7.708   8.967   4.233 -0.0772 -0.2602 -0.6114
17527THY    HP325480   7.797   8.901   4.099 -0.2642  0.0113  1.3587
17527THY    HP425481   7.886   9.007   4.216  1.2563  1.3598 -1.6090
17527THY    CP325482   7.744   8.725   4.314 -0.0042  1.1918  0.3156
17527THY    HP525483   7.773   8.636   4.370 -1.9335  0.7009 -0.6570
17527THY    HP625484   7.704   8.686   4.220 -0.5740  1.6572 -0.2232
17527THY    HP725485   7.661   8.780   4.359 -1.4947  0.1208 -0.9884
17527THY    CA325486   7.829   8.957   4.508  0.9127 -0.1081  0.5089
17527THY    HA325487   7.725   8.972   4.481  1.0963 -0.3494  1.4275
17527THY    CA425488   7.890   9.021   4.616 -0.2709 -0.2580  0.1033
17527THY    HA425489   7.838   9.094   4.678 -0.2550  1.7913 -1.5465
17527THY    CA525490   8.022   8.985   4.654 -0.2378 -0.3784  0.2367
17527THY    CM125491   8.090   9.053   4.764 -0.0031 -0.5603  0.0208
17527THY    HM125492   8.078   9.162   4.762 -1.0483 -2.5205 -0.0846
17527THY    HM225493   8.199   9.052   4.748  0.0091 -0.4948  0.1731
17527THY    HM325494   8.053   9.012   4.858 -2.4408 -2.0644 -1.4659
17527THY    CA625495   8.089   8.890   4.576  0.0090 -0.2932  0.2099
17527THY    HA625496   8.186   8.860   4.616  0.1803  0.3202  1.4823
17528THY      O25497   8.019   4.373   4.945 -0.2293 -0.1562  0.1707
17528THY     HO25498   8.112   4.390   4.923 -0.2307 -0.5813 -0.3310
17528THY    CA125499   7.978   4.278   4.863 -0.1797  0.2399 -0.2354
17528THY    CA225500   7.860   4.207   4.888  0.2693 -0.5175  0.1612
17528THY    CP125501   7.775   4.237   5.007  0.0512  0.1751  0.0705
17528THY    HP125502   7.805   4.331   5.055  1.9389 -1.5072  0.4015
17528THY    CP225503   7.781   4.136   5.129 -0.2188  0.1535  0.3216
17528THY    HP225504   7.752   4.037   5.094 -2.1842  0.2322  0.8212
17528THY    HP325505   7.712   4.169   5.208  0.3217  0.4233  0.8208
17528THY    HP425506   7.874   4.132   5.187  0.1001 -0.4372 -1.9226
17528THY    CP325507   7.624   4.249   4.967  0.2297 -0.9907 -0.8325
17528THY    HP525508   7.560   4.286   5.048  2.9046  1.7584 -1.8565
17528THY    HP625509   7.587   4.148   4.946  0.7025 -0.8305 -1.0429
17528THY    HP725510   7.618   4.325   4.888  2.6479  0.2496  0.8179
17528THY    CA325511   7.826   4.101   4.804  0.9597 -0.4768  0.3952
17528THY    HA325512   7.740   4.038   4.829 -0.3946 -0.8221  2.0304
17528THY    CA425513   7.899   4.070   4.694 -0.7270  0.3071  0.2161
17528THY    HA425514   7.859   3.999   4.622 -0.2033  0.3606 -0.1428
17528THY    CA525515   8.021   4.139   4.667  0.2592 -0.3706 -0.0734
17528THY    CM125516   8.102   4.093   4.548  0.2891  0.6530  0.4896
17528THY    HM125517   8.192   4.033   4.565  0.0017  0.3107 -0.0463
17528THY    HM225518   8.128   4.182   4.490  0.8552  0.1781  0.0238
17528THY    HM325519   8.041   4.035   4.478 -0.2238  1.9158 -0.5482
17528THY    CA625520   8.058   4.247   4.753  0.6781  0.8861  0.1421
17528THY    HA625521   8.151   4.302   4.740 -0.3557 -1.1094  1.5370
17529THY      O25522   0.339   0.861   5.655  0.3378  0.1161 -0.0634
17529THY     HO25523   0.380   0.780   5.620 -1.7674 -0.1215 -1.1005
17529THY    CA125524   0.434   0.954   5.690  0.8177 -0.1256 -0.2699
17529THY    CA225525   0.406   1.098   5.679 -0.4122 -0.0399  1.0063
17529THY    CP125526   0.265   1.130   5.627  0.4477 -0.6694  0.0167
17529THY    HP125527   0.207   1.042   5.595  0.9677 -0.8815 -0.2512
17529THY    CP225528   0.262   1.216   5.506  0.0706  0.5803 -0.5077
17529THY    HP225529   0.293   1.317   5.534  0.4159  0.5652 -0.6055
17529THY    HP325530   0.160   1.224   5.467 -0.0331  0.2378 -2.7650
17529THY    HP425531   0.324   1.174   5.426 -0.8296 -0.3955 -0.0244
17529THY    CP325532   0.204   1.195   5.744  0.1644 -0.1090 -1.3948
17529THY    HP525533   0.204   1.119   5.823  0.5230  1.9461  0.6343
17529THY    HP625534   0.102   1.227   5.718  0.3173  0.8259 -0.0566
17529THY    HP725535   0.262   1.282   5.776  0.7740  0.8360 -2.1306
17529THY    CA325536   0.508   1.190   5.691  0.1830 -0.1256 -0.1259
17529THY    HA325537   0.502   1.298   5.678  1.3348  0.7390  0.0625
17529THY    CA425538   0.636   1.144   5.730  0.0363 -0.7508 -0.6724
17529THY    HA425539   0.715   1.218   5.739  0.2257  1.3199 -1.0745
17529THY    CA525540   0.662   1.002   5.742 -0.0126 -0.3325 -0.6684
17529THY    CM125541   0.800   0.970   5.782  0.4069  0.4210  1.0168
17529THY    HM125542   0.824   1.017   5.878 -0.4046  2.2618 -1.9993
17529THY    HM225543   0.872   0.985   5.701 -1.1699 -1.4998 -1.1212
17529THY    HM325544   0.803   0.861   5.793 -1.4386 -0.4075  0.8302
17529THY    CA625545   0.561   0.908   5.713 -0.0584  0.2739 -0.5894
17529THY    HA625546   0.580   0.802   5.712 -0.8839  0.4010 -0.7445
17530THY      O25547   3.228   7.583   2.456  0.4736 -0.1883 -0.2690
17530THY     HO25548   3.290   7.612   2.386 -0.5300 -1.0565 -0.1485
17530THY    CA125549   3.260   7.455   2.489  0.0103 -0.1571  0.6080
17530THY    CA225550   3.205   7.395   2.605 -0.8613  0.9987  0.3220
17530THY    CP125551   3.091   7.470   2.672 -0.2003  0.0679 -0.3507
17530THY    HP125552   3.043   7.538   2.600 -1.6974  0.1962 -1.2308
17530THY    CP225553   3.141   7.543   2.800 -0.0271  0.6275 -0.0409
17530THY    HP225554   3.163   7.476   2.884 -0.1381 -0.6487 -1.7185
17530THY    HP325555   3.062   7.617   2.817 -0.0632 -1.7663  0.5361
17530THY    HP425556   3.231   7.604   2.787 -0.1459 -0.9551 -0.1694
17530THY    CP325557   2.971   7.385   2.701 -0.1135 -0.3948  0.2144
17530THY    HP525558   2.977   7.313   2.783  2.1431  0.3676  1.1810
17530THY    HP625559   2.943   7.332   2.609  0.3156 -0.5017  0.1668
17530THY    HP725560   2.897   7.454   2.741  0.4111  2.5316 -0.7762
17530THY    CA325561   3.242   7.262   2.639 -0.3884  0.0863  0.3090
17530THY    HA325562   3.192   7.209   2.719 -0.1976  1.4249  2.0898
17530THY    CA425563   3.337   7.194   2.558  0.3685  0.1288 -0.4024
17530THY    HA425564   3.360   7.090   2.580  1.4655 -0.2369 -0.2456
17530THY    CA525565   3.393   7.255   2.446 -0.4892 -1.2451 -0.4501
17530THY    CM125566   3.475   7.170   2.355  0.4468 -0.3202 -0.5947
17530THY    HM125567   3.521   7.226   2.273 -0.1869  1.1235  2.1998
17530THY    HM225568   3.420   7.084   2.315  2.3838 -0.0900 -2.0032
17530THY    HM325569   3.563   7.132   2.408  0.4942  1.4698  1.8184
17530THY    CA625570   3.345   7.386   2.411  0.0350  0.0411  0.7490
17530THY    HA625571   3.383   7.433   2.321 -0.0097 -0.9608 -1.0318
17531THY      O25572   2.111   2.519   7.038  0.6527  0.0970 -0.3148
17531THY     HO25573   2.050   2.446   7.018  0.0767  2.2105 -0.4740
17531THY    CA125574   2.237   2.494   6.990  0.7315  0.4150 -0.1055
17531THY    CA225575   2.339   2.585   7.011 -0.2014 -0.5710 -0.0740
17531THY    CP125576   2.325   2.718   7.083  0.5031  1.1404 -0.4388
17531THY    HP125577   2.223   2.732   7.123 -0.2998 -1.3256  1.4033
17531THY    CP225578   2.353   2.841   6.996 -0.7523  0.1559 -0.0519
17531THY    HP225579   2.275   2.860   6.921 -1.0804  0.6428  0.5342
17531THY    HP325580   2.443   2.820   6.936  0.7071  2.2165  0.0820
17531THY    HP425581   2.374   2.929   7.056 -0.9476  0.0848  0.0433
17531THY    CP325582   2.422   2.727   7.202  0.0918  1.0440  0.7971
17531THY    HP525583   2.405   2.645   7.273  0.9548 -1.0416 -1.2811
17531THY    HP625584   2.413   2.821   7.257 -1.9000  0.4290  1.0023
17531THY    HP725585   2.529   2.718   7.181 -0.0085  1.1753 -1.0135
17531THY    CA325586   2.463   2.541   6.970  0.4753  0.4556  0.0608
17531THY    HA325587   2.545   2.610   6.983 -0.3018 -0.0512  1.1103
17531THY    CA425588   2.478   2.422   6.904  0.0997 -0.0624 -0.5761
17531THY    HA425589   2.576   2.391   6.871 -0.2415  0.5734 -2.4501
17531THY    CA525590   2.372   2.338   6.880 -0.7221 -0.0841  0.7250
17531THY    CM125591   2.396   2.213   6.813 -0.1122  0.3070 -0.6538
17531THY    HM125592   2.480   2.160   6.860  0.1864 -1.0259 -1.4186
17531THY    HM225593   2.419   2.230   6.707  0.4103  0.6113  0.5901
17531THY    HM325594   2.303   2.155   6.813 -1.1817 -1.7979  0.9474
17531THY    CA625595   2.248   2.373   6.925 -0.1473  0.1580  0.0655
17531THY    HA625596   2.168   2.300   6.921  1.0047 -1.1539 -1.1950
17532THY      O25597   4.538   4.430   7.989 -0.3780  0.0763  0.1842
17532THY     HO25598   4.550   4.526   7.993  1.8400 -0.7981  0.0097
17532THY    CA125599   4.456   4.402   7.885 -0.2264  0.4663  0.0919
17532THY    CA225600   4.457   4.271   7.830 -0.7189 -0.1329  0.1956
17532THY    CP125601   4.556   4.158   7.868  0.3480 -0.3899  0.5585
17532THY    HP125602   4.623   4.184   7.951 -1.9572  2.1545 -0.9937
17532THY    CP225603   4.632   4.111   7.744 -0.6544  0.7638  0.2749
17532THY    HP225604   4.568   4.110   7.655 -0.2056  0.3362  3.0835
17532THY    HP325605   4.672   4.011   7.763 -3.3765  1.3686 -0.7961
17532THY    HP425606   4.714   4.178   7.716 -0.2383 -0.4557 -0.7070
17532THY    CP325607   4.477   4.029   7.914  0.4779  0.4784  0.0455
17532THY    HP525608   4.403   4.008   7.835  0.5432 -0.5457  3.0693
17532THY    HP625609   4.420   4.046   8.006  0.4958  0.5151 -0.0957
17532THY    HP725610   4.544   3.943   7.923 -0.0484  0.4003 -0.3814
17532THY    CA325611   4.362   4.239   7.732 -0.3551 -0.1511  0.6725
17532THY    HA325612   4.350   4.139   7.692 -0.0965  2.2788 -0.3904
17532THY    CA425613   4.282   4.341   7.682  0.0568  0.3398 -0.4098
17532THY    HA425614   4.219   4.323   7.595  0.0950  0.4052 -0.8710
17532THY    CA525615   4.275   4.466   7.747  1.1520  0.0113 -0.0685
17532THY    CM125616   4.164   4.564   7.716  0.6729  0.0879  0.5846
17532THY    HM125617   4.112   4.606   7.803  0.3908 -1.1402  2.9151
17532THY    HM225618   4.096   4.512   7.648 -0.3369  0.3069  1.5866
17532THY    HM325619   4.206   4.642   7.651  1.5394  0.5741  0.5402
17532THY    CA625620   4.361   4.498   7.850  0.4753  0.3063 -0.1125
17532THY    HA625621   4.354   4.590   7.907 -2.2515 -0.1921  0.0826
17533THY      O25622   6.378   6.268   2.195  0.0181 -0.0805 -0.3234
17533THY     HO25623   6.407   6.237   2.107  0.2113 -0.0936 -0.1141
17533THY    CA125624   6.458   6.372   2.214 -0.4871  0.2480 -0.6571
17533THY    CA225625   6.420   6.466   2.304  0.0081 -0.4818  0.0860
17533THY    CP125626   6.289   6.451   2.390 -0.5222 -0.2535  0.1541
17533THY    HP125627   6.230   6.366   2.353  1.5172 -1.4452 -0.8506
17533THY    CP225628   6.208   6.576   2.382  0.2858  0.7570  0.1013
17533THY    HP225629   6.265   6.670   2.392  0.1275 -2.0221  0.5753
17533THY    HP325630   6.136   6.573   2.464  0.5971  1.1366  1.7886
17533THY    HP425631   6.153   6.571   2.287 -1.6351  1.8627 -0.7950
17533THY    CP325632   6.321   6.418   2.542  0.1407 -0.2997  0.5715
17533THY    HP525633   6.231   6.405   2.604  1.0552  0.8865 -0.3564
17533THY    HP625634   6.372   6.510   2.573 -2.0691 -0.0685  1.7997
17533THY    HP725635   6.366   6.320   2.556 -2.5772  1.8737 -0.5044
17533THY    CA325636   6.508   6.572   2.333  0.1742 -0.4108  0.3024
17533THY    HA325637   6.481   6.643   2.410 -0.3288 -0.4006  0.1013
17533THY    CA425638   6.620   6.585   2.253  0.2545  0.1603 -0.4197
17533THY    HA425639   6.688   6.668   2.268  0.0472 -1.2502  0.0334
17533THY    CA525640   6.654   6.499   2.154 -0.4214  0.7897 -0.3326
17533THY    CM125641   6.776   6.518   2.076  0.0012 -0.2608  0.3677
17533THY    HM125642   6.803   6.431   2.016 -2.8644 -2.5562  0.8798
17533THY    HM225643   6.861   6.548   2.138 -0.9913  0.7535  1.1954
17533THY    HM325644   6.756   6.601   2.007  0.3786 -1.9539 -0.8900
17533THY    CA625645   6.575   6.385   2.135 -0.1750 -0.6385  0.1043
17533THY    HA625646   6.609   6.305   2.070 -3.0211 -0.9469 -0.9748
17534THY      O25647   0.588   4.716   3.823  0.0386 -0.2236  0.0991
17534THY     HO25648   0.590   4.756   3.734  0.8117 -0.1252  0.2867
17534THY    CA125649   0.461   4.705   3.864  0.2257 -1.0733  0.8517
17534THY    CA225650   0.426   4.724   4.005 -0.0075  0.0776  0.5379
17534THY    CP125651   0.524   4.774   4.107 -0.8305  0.5780 -0.2841
17534THY    HP125652   0.624   4.761   4.063 -1.7627 -1.6102 -0.5080
17534THY    CP225653   0.543   4.689   4.227 -0.4107 -0.5044  0.2287
17534THY    HP225654   0.459   4.711   4.294 -0.7880 -1.5062  2.0048
17534THY    HP325655   0.644   4.698   4.267 -0.5243 -0.5067  1.8454
17534THY    HP425656   0.533   4.583   4.200  1.0015 -1.0282  0.2178
17534THY    CP325657   0.492   4.923   4.149 -1.2171  0.0092 -0.1792
17534THY    HP525658   0.584   4.963   4.194 -2.4901  1.4504  1.2302
17534THY    HP625659   0.408   4.935   4.218 -0.7173  0.3782  1.4951
17534THY    HP725660   0.463   4.975   4.057  0.3033  0.2916  1.2577
17534THY    CA325661   0.296   4.691   4.041 -0.0354 -0.0985  0.5300
17534THY    HA325662   0.266   4.711   4.144 -0.1690  0.1666 -0.9484
17534THY    CA425663   0.201   4.649   3.948  0.0618 -0.1861 -0.0912
17534THY    HA425664   0.098   4.635   3.981  0.2620  0.1831 -0.7191
17534THY    CA525665   0.232   4.648   3.815 -0.0474  0.8504  0.3557
17534THY    CM125666   0.125   4.618   3.714  0.1683 -0.6970  0.0574
17534THY    HM125667   0.094   4.513   3.711 -1.0061 -0.0486  0.3632
17534THY    HM225668   0.169   4.660   3.623 -0.7014 -1.1207  0.0757
17534THY    HM325669   0.036   4.680   3.730 -0.0510  2.0385 -0.8050
17534THY    CA625670   0.366   4.661   3.772  0.1796 -0.4237 -0.5934
17534THY    HA625671   0.399   4.649   3.669 -0.1726 -0.6229  0.0535
17535THY      O25672   6.607   6.433   5.629  0.0721 -0.1176 -0.5320
17535THY     HO25673   6.635   6.455   5.538 -0.8338 -0.4211 -0.6176
17535THY    CA125674   6.513   6.328   5.626  0.2924 -0.2316 -0.3873
17535THY    CA225675   6.395   6.337   5.705  0.3840 -0.0718 -0.3048
17535THY    CP125676   6.391   6.444   5.813  0.8718 -0.3304  0.3196
17535THY    HP125677   6.497   6.471   5.824  1.0270 -0.1878 -0.3296
17535THY    CP225678   6.320   6.397   5.941  0.2276 -0.0837 -0.1854
17535THY    HP225679   6.343   6.456   6.030 -1.7530 -0.5859  1.4553
17535THY    HP325680   6.349   6.293   5.964  0.6980  1.2320  0.2176
17535THY    HP425681   6.211   6.392   5.934  0.3317 -0.9011 -2.2731
17535THY    CP325682   6.309   6.559   5.766  0.1611 -0.6375  0.1885
17535THY    HP525683   6.286   6.637   5.840 -0.7773 -1.0110  0.2806
17535THY    HP625684   6.208   6.529   5.735  0.0204  0.2240 -0.2700
17535THY    HP725685   6.353   6.613   5.682  2.0061  1.1762  1.6518
17535THY    CA325686   6.285   6.246   5.683  0.1824 -0.6815  0.0834
17535THY    HA325687   6.191   6.269   5.732  0.7241  0.4207 -0.0129
17535THY    CA425688   6.301   6.144   5.590  0.6953  0.6360 -0.3622
17535THY    HA425689   6.222   6.072   5.569  0.9804 -1.3298 -0.1367
17535THY    CA525690   6.415   6.141   5.513  0.6975  0.4692  0.3354
17535THY    CM125691   6.428   6.032   5.405  0.1141 -0.1913 -0.2218
17535THY    HM125692   6.332   6.029   5.353  1.7850 -3.5119  0.0237
17535THY    HM225693   6.461   5.937   5.448 -0.0148 -1.6673 -0.9636
17535THY    HM325694   6.503   6.059   5.331 -1.3308 -1.6702 -0.1071
17535THY    CA625695   6.521   6.232   5.525 -0.1459  0.1751 -0.1895
17535THY    HA625696   6.609   6.208   5.466  0.1178  1.1746 -1.8963
17536THY      O25697   0.915   1.633   4.764  0.2436  0.4066 -0.6693
17536THY     HO25698   0.945   1.708   4.709 -1.0850 -0.1188 -0.4930
17536THY    CA125699   0.782   1.660   4.767 -0.0652  0.3970 -0.2362
17536THY    CA225700   0.693   1.601   4.858  0.8532 -0.2134  0.2251
17536THY    CP125701   0.743   1.480   4.945  0.0336  0.7783 -0.9615
17536THY    HP125702   0.828   1.423   4.906  2.2334  0.4415  2.2100
17536THY    CP225703   0.630   1.384   4.967  0.2778  0.6651  0.4309
17536THY    HP225704   0.675   1.294   5.011  1.2313  0.8366  0.9759
17536THY    HP325705   0.572   1.357   4.878  1.4086 -0.0596  0.3510
17536THY    HP425706   0.557   1.438   5.028 -1.5525 -2.0842  1.2744
17536THY    CP325707   0.801   1.532   5.079  0.2843  0.1510 -0.1455
17536THY    HP525708   0.900   1.578   5.077  0.2895 -1.2988 -0.1692
17536THY    HP625709   0.807   1.446   5.147  0.9068 -0.3728 -0.5220
17536THY    HP725710   0.730   1.604   5.122 -0.3334 -0.8857 -0.1192
17536THY    CA325711   0.554   1.642   4.865 -0.4023  0.3650  0.0520
17536THY    HA325712   0.487   1.605   4.943 -1.2974 -0.2241  0.4044
17536THY    CA425713   0.513   1.737   4.768  0.2781  0.1074 -0.6108
17536THY    HA425714   0.409   1.770   4.762  1.0651 -1.5502  1.8549
17536THY    CA525715   0.604   1.803   4.683 -0.4511  0.5021  0.8801
17536THY    CM125716   0.559   1.920   4.590  0.0036  0.0236  0.3080
17536THY    HM125717   0.519   2.001   4.651 -0.6171 -0.1292  0.1280
17536THY    HM225718   0.474   1.890   4.526 -0.0326 -0.2580  1.0022
17536THY    HM325719   0.634   1.958   4.520 -0.8186  0.2081  2.3657
17536THY    CA625720   0.736   1.761   4.681  0.3028 -0.7498 -0.1256
17536THY    HA625721   0.801   1.803   4.606 -1.4945 -1.1365  2.1538
17537THY      O25722   7.750   6.492   2.218 -0.0888 -0.1296 -0.0578
17537THY     HO25723   7.771   6.471   2.125 -1.8132 -0.4978 -0.2329
17537THY    CA125724   7.673   6.603   2.217 -0.4602 -0.0339  0.1133
17537THY    CA225725   7.655   6.682   2.331 -0.2191  0.4904 -0.1193
17537THY    CP125726   7.733   6.652   2.459 -0.2135 -0.3788 -0.2873
17537THY    HP125727   7.786   6.557   2.443 -0.7444  2.6439 -1.1838
17537THY    CP225728   7.638   6.629   2.575 -0.1252  0.2662  0.1147
17537THY    HP225729   7.591   6.724   2.604  0.8656 -2.0288  1.3856
17537THY    HP325730   7.688   6.588   2.664  0.4270  0.1960  0.6143
17537THY    HP425731   7.554   6.564   2.547 -1.1841 -1.4187  2.1081
17537THY    CP325732   7.847   6.756   2.496  0.1073  0.3896 -0.6154
17537THY    HP525733   7.909   6.759   2.406 -0.3310  0.0925 -0.1763
17537THY    HP625734   7.909   6.737   2.584 -0.6292  1.5065  1.7742
17537THY    HP725735   7.792   6.851   2.505  2.0662 -0.2737  0.6399
17537THY    CA325736   7.561   6.790   2.324 -0.7103  0.2683  0.8186
17537THY    HA325737   7.537   6.849   2.412 -1.2717  0.7874 -0.1609
17537THY    CA425738   7.503   6.822   2.206 -0.2339 -0.5998  0.1878
17537THY    HA425739   7.421   6.892   2.211 -0.1021 -1.1389  0.3808
17537THY    CA525740   7.533   6.752   2.081 -0.0785 -0.0790  0.0848
17537THY    CM125741   7.450   6.792   1.960  0.0988  0.6604 -0.1401
17537THY    HM125742   7.373   6.868   1.984  1.1895  1.8241  0.6438
17537THY    HM225743   7.410   6.704   1.908  1.0644  2.8380 -1.9762
17537THY    HM325744   7.521   6.832   1.888  0.6785  0.7168 -1.0405
17537THY    CA625745   7.615   6.639   2.088 -0.1959  0.0105 -0.1104
17537THY    HA625746   7.643   6.585   1.998  2.9010 -0.2833  1.7476
17538THY      O25747   0.676   1.157   2.282  0.3133  0.2018 -0.0072
17538THY     HO25748   0.642   1.248   2.279 -2.0515  1.5444 -0.7708
17538THY    CA125749   0.599   1.078   2.197  0.6414 -0.3372  0.6587
17538THY    CA225750   0.644   0.952   2.154 -0.3628 -0.0766 -0.3608
17538THY    CP125751   0.776   0.901   2.204 -0.1234  0.2326 -0.5085
17538THY    HP125752   0.814   0.971   2.280 -1.9245 -0.1676  0.9933
17538THY    CP225753   0.869   0.887   2.086  0.0602  0.5372 -0.1563
17538THY    HP225754   0.829   0.807   2.022  1.7286 -0.9816  0.1444
17538THY    HP325755   0.966   0.857   2.128 -0.1268  1.3107  0.3058
17538THY    HP425756   0.876   0.984   2.034 -0.0234 -1.5034 -1.1898
17538THY    CP325757   0.770   0.774   2.278 -0.2692  0.1448 -0.2995
17538THY    HP525758   0.683   0.776   2.346  0.1508  0.6911 -0.3018
17538THY    HP625759   0.858   0.767   2.343 -0.7438  1.3527  2.8983
17538THY    HP725760   0.747   0.686   2.218  1.3995 -1.4534  0.3001
17538THY    CA325761   0.564   0.865   2.080  0.0658 -0.0513  0.0662
17538THY    HA325762   0.606   0.773   2.042 -1.1675 -1.4502  0.0534
17538THY    CA425763   0.435   0.902   2.044  0.1455 -0.0824  0.2006
17538THY    HA425764   0.379   0.840   1.974 -1.5165 -0.1913  1.7287
17538THY    CA525765   0.388   1.029   2.081  0.1283 -0.6499  0.4160
17538THY    CM125766   0.262   1.077   2.027  1.5458  0.4307 -0.5273
17538THY    HM125767   0.183   1.039   2.093  1.1725  1.4271  1.7706
17538THY    HM225768   0.249   1.044   1.924  0.9225 -0.4435  2.2041
17538THY    HM325769   0.256   1.186   2.036 -0.7112 -1.3812 -0.4248
17538THY    CA625770   0.467   1.115   2.161  0.2733 -0.6465  0.0686
17538THY    HA625771   0.428   1.207   2.204  3.3485  1.4748  0.5062
17539THY      O25772   4.962   6.221   6.826  0.1325 -0.8287 -0.0373
17539THY     HO25773   4.945   6.129   6.800 -2.0705  0.2889  0.0053
17539THY    CA125774   4.898   6.246   6.947 -0.5761 -0.5625  0.4524
17539THY    CA225775   4.928   6.362   7.028  0.2768 -0.4376  0.2078
17539THY    CP125776   5.031   6.464   6.970 -0.2020 -1.0476  0.0907
17539THY    HP125777   5.093   6.426   6.889 -0.5737 -0.6002 -1.5478
17539THY    CP225778   5.140   6.496   7.074  0.0867 -0.0783  0.6397
17539THY    HP225779   5.210   6.412   7.084  0.2371 -1.8215  0.5154
17539THY    HP325780   5.108   6.513   7.178 -1.8760 -0.7485  1.3205
17539THY    HP425781   5.195   6.586   7.043 -0.5876  2.1725  1.9129
17539THY    CP325782   4.958   6.587   6.922  0.2268  0.4186 -0.2858
17539THY    HP525783   4.881   6.625   6.990  0.9029  0.5826  0.8471
17539THY    HP625784   4.907   6.569   6.826 -3.6508  2.1992  0.1533
17539THY    HP725785   5.028   6.670   6.903 -0.1596 -2.0456 -0.4357
17539THY    CA325786   4.869   6.369   7.154  0.4322 -1.4006 -0.3703
17539THY    HA325787   4.904   6.447   7.222 -1.4150  1.2767 -1.7071
17539THY    CA425788   4.777   6.269   7.191  0.0712 -0.7111  0.3172
17539THY    HA425789   4.746   6.269   7.296 -0.2028 -0.7730 -1.1060
17539THY    CA525790   4.737   6.160   7.112  0.0193  0.8381  0.2773
17539THY    CM125791   4.629   6.063   7.143  0.2798 -0.2833  0.6297
17539THY    HM125792   4.570   6.095   7.230 -1.0819 -1.4814  1.5264
17539THY    HM225793   4.659   5.963   7.176 -0.4470 -0.1361  0.4510
17539THY    HM325794   4.554   6.049   7.064 -0.6988  0.3146  2.2428
17539THY    CA625795   4.795   6.159   6.983 -1.1739  0.1033  0.0501
17539THY    HA625796   4.769   6.079   6.914 -1.0129 -1.0249  0.9421
17540THY      O25797   3.274   1.714   4.666 -0.2475  0.3208  0.0036
17540THY     HO25798   3.284   1.647   4.736 -2.0859  1.8220  1.1894
17540THY    CA125799   3.338   1.678   4.550  0.1349  0.4042 -0.4056
17540THY    CA225800   3.424   1.769   4.482  0.7229  0.2978  0.6407
17540THY    CP125801   3.449   1.904   4.543  0.2533  0.2291 -0.1343
17540THY    HP125802   3.385   1.928   4.629  0.8385  0.7844 -0.5228
17540THY    CP225803   3.430   2.014   4.436  0.1842 -0.1915  0.2343
17540THY    HP225804   3.507   2.000   4.359  1.4654  0.7484  1.7511
17540THY    HP325805   3.432   2.111   4.487  2.0005 -2.1420  1.3192
17540THY    HP425806   3.333   1.993   4.388  0.3453 -0.0770 -0.7975
17540THY    CP325807   3.597   1.909   4.590  0.3461  0.1906 -0.2129
17540THY    HP525808   3.616   2.009   4.631 -1.2921 -1.2219  0.7409
17540THY    HP625809   3.671   1.900   4.510  0.2152 -0.2533  2.0116
17540THY    HP725810   3.608   1.829   4.664 -1.8912 -0.9156 -1.6335
17540THY    CA325811   3.476   1.724   4.362 -0.0138 -0.2072 -0.4126
17540THY    HA325812   3.546   1.787   4.306 -0.4933 -0.3058  0.0401
17540THY    CA425813   3.449   1.603   4.308  0.6252  0.0639 -0.2478
17540THY    HA425814   3.499   1.577   4.216 -1.0268 -1.1018  0.5291
17540THY    CA525815   3.361   1.515   4.378 -0.4345 -0.3026  0.6144
17540THY    CM125816   3.329   1.382   4.319 -0.4899 -0.5692  0.0710
17540THY    HM125817   3.220   1.375   4.332 -0.3351  2.6252  1.8489
17540THY    HM225818   3.391   1.309   4.372 -1.0029  0.8078  0.6029
17540THY    HM325819   3.367   1.374   4.216 -0.5053 -0.4729 -1.3839
17540THY    CA625820   3.311   1.556   4.500  0.0810 -0.4252  0.1357
17540THY    HA625821   3.251   1.493   4.564  1.2412 -0.4453 -1.0432
17541THY      O25822   0.978   5.680   7.267  0.2790 -0.0350 -0.0625
17541THY     HO25823   0.931   5.702   7.350 -0.7211 -1.0076  1.6838
17541THY    CA125824   1.001   5.793   7.190 -0.0287 -0.4002 -0.3488
17541THY    CA225825   0.991   5.782   7.056 -0.1256  0.1507  0.0893
17541THY    CP125826   0.949   5.649   6.986 -0.5158  0.4665 -0.1454
17541THY    HP125827   0.918   5.576   7.062  2.7873  1.1910 -0.9580
17541THY    CP225828   1.068   5.586   6.904 -0.2262 -0.4495 -0.1807
17541THY    HP225829   1.038   5.487   6.867 -0.0179  0.0573 -0.4351
17541THY    HP325830   1.153   5.572   6.971 -2.1973  2.1845 -0.4158
17541THY    HP425831   1.069   5.650   6.815 -2.3524 -0.7713 -0.5075
17541THY    CP325832   0.824   5.680   6.900 -0.2120 -0.2861 -0.2022
17541THY    HP525833   0.856   5.753   6.824  0.1928  1.0407  1.0471
17541THY    HP625834   0.752   5.731   6.964  2.7936  1.6996  1.8385
17541THY    HP725835   0.779   5.592   6.853 -0.9174  1.9205 -1.0627
17541THY    CA325836   1.034   5.896   6.986 -0.0288 -0.0100  0.1559
17541THY    HA325837   1.043   5.893   6.877  0.8594 -0.0322  2.1029
17541THY    CA425838   1.084   6.014   7.051  0.3303 -0.4690 -0.0522
17541THY    HA425839   1.122   6.095   6.990  0.2545 -2.6539 -1.5666
17541THY    CA525840   1.097   6.011   7.190 -0.0565 -0.4144 -0.3727
17541THY    CM125841   1.163   6.128   7.263 -0.5296 -0.0189 -0.1571
17541THY    HM125842   1.144   6.230   7.229  0.4071  1.6080  0.5963
17541THY    HM225843   1.270   6.113   7.243 -0.3947 -1.1532  1.9325
17541THY    HM325844   1.144   6.118   7.370  2.4670  0.5327 -0.8030
17541THY    CA625845   1.049   5.898   7.259 -0.0545 -0.0594 -0.5310
17541THY    HA625846   1.064   5.891   7.366  0.6473 -0.0641  0.6283
17542THY      O25847   6.414   1.180   5.495  0.0146 -0.8554  0.4221
17542THY     HO25848   6.501   1.210   5.464  0.2791  0.2932  0.9031
17542THY    CA125849   6.328   1.194   5.400  0.2198  0.0837 -0.0004
17542THY    CA225850   6.184   1.193   5.419 -0.5954  0.8354 -0.0896
17542THY    CP125851   6.134   1.156   5.560  0.3983 -0.9483 -0.3806
17542THY    HP125852   6.182   1.219   5.637  0.7104 -1.1899 -0.3173
17542THY    CP225853   6.172   1.019   5.608  1.0621  0.3419  0.5578
17542THY    HP225854   6.148   0.994   5.712  3.5920  0.7916 -0.3294
17542THY    HP325855   6.281   1.010   5.609  0.9942 -0.5515 -0.7595
17542THY    HP425856   6.129   0.941   5.543 -2.8217  0.8629  2.0206
17542THY    CP325857   5.984   1.178   5.580 -0.5777 -0.2104 -0.4575
17542THY    HP525858   5.945   1.167   5.682 -3.5753 -1.0706  1.0317
17542THY    HP625859   5.920   1.124   5.509 -0.8854 -1.0058  0.8930
17542THY    HP725860   5.948   1.280   5.561 -0.8565  2.5164  0.0223
17542THY    CA325861   6.100   1.222   5.306 -0.0367 -0.6229  0.5235
17542THY    HA325862   5.992   1.225   5.312  0.0181  1.3459 -0.0197
17542THY    CA425863   6.155   1.223   5.178 -0.8081  0.7791  0.9101
17542THY    HA425864   6.094   1.246   5.091 -0.6394  0.6584  0.8967
17542THY    CA525865   6.299   1.213   5.157 -0.4704 -0.5051  0.4938
17542THY    CM125866   6.368   1.214   5.024 -0.6054 -0.2315 -0.5785
17542THY    HM125867   6.417   1.311   5.012 -1.8844  0.0444  0.1208
17542THY    HM225868   6.287   1.200   4.951  0.3484 -1.2995 -0.6825
17542THY    HM325869   6.431   1.124   5.016 -0.7358 -1.3511 -0.5902
17542THY    CA625870   6.384   1.205   5.272 -0.2208 -0.6652  0.7648
17542THY    HA625871   6.490   1.213   5.249 -0.3269 -1.7485 -0.5342
17543THY      O25872   9.065   3.005   7.286 -0.3927 -0.1985  0.2304
17543THY     HO25873   9.132   2.959   7.339 -2.6912  2.5745 -0.2320
17543THY    CA125874   9.019   2.924   7.185  0.0737  0.0576 -0.1032
17543THY    CA225875   8.920   2.963   7.087 -0.3399 -0.2675 -1.1307
17543THY    CP125876   8.872   3.113   7.101  0.4026 -0.5337  0.2783
17543THY    HP125877   8.929   3.171   7.175  2.7834  0.0885 -2.5883
17543THY    CP225878   8.728   3.110   7.155  0.0431  0.7260 -0.2093
17543THY    HP225879   8.667   3.055   7.083  2.1222 -1.4924  0.2105
17543THY    HP325880   8.699   3.216   7.159  2.2812 -2.1987  0.6696
17543THY    HP425881   8.726   3.070   7.257 -0.7072  1.4169  1.4713
17543THY    CP325882   8.888   3.184   6.967  0.0377  0.0876  0.0129
17543THY    HP525883   8.825   3.135   6.892 -1.5859 -0.4910  2.7594
17543THY    HP625884   8.992   3.191   6.932  0.0148  0.0646  0.2781
17543THY    HP725885   8.848   3.286   6.975 -2.1791 -0.7567 -0.7466
17543THY    CA325886   8.875   2.870   6.991  0.5710 -0.7908 -0.6802
17543THY    HA325887   8.805   2.899   6.912 -0.6223  0.4507 -0.0557
17543THY    CA425888   8.923   2.740   6.996  0.3346 -0.6943 -0.0370
17543THY    HA425889   8.892   2.667   6.922  0.9925 -1.4536  0.4319
17543THY    CA525890   9.028   2.709   7.079  0.2024 -0.0284 -0.1227
17543THY    CM125891   9.083   2.567   7.072 -0.3209 -0.4618 -0.3088
17543THY    HM125892   9.016   2.498   7.019 -2.9811  2.9615 -0.6220
17543THY    HM225893   9.102   2.524   7.171  0.1455  0.1706  1.2853
17543THY    HM325894   9.184   2.570   7.031  0.5578  1.6227  0.7223
17543THY    CA625895   9.072   2.798   7.175 -0.2656  0.3041 -0.1976
17543THY    HA625896   9.153   2.771   7.242 -1.9714  1.5859 -2.6954
17544THY      O25897   4.850   5.082   4.388 -0.4285 -0.2739  0.4989
17544THY     HO25898   4.909   5.130   4.326  1.6982  1.6836  0.5976
17544THY    CA125899   4.886   4.953   4.386  0.4238 -0.8189 -0.4700
17544THY    CA225900   4.841   4.866   4.483 -0.4389  0.1710  0.1727
17544THY    CP125901   4.752   4.919   4.593 -0.3667  0.3069  0.8787
17544THY    HP125902   4.746   5.029   4.591 -0.6642 -0.9705  0.8553
17544THY    CP225903   4.804   4.871   4.729  0.1390 -0.7918 -0.5321
17544THY    HP225904   4.757   4.939   4.801 -1.9477 -1.6347 -1.0087
17544THY    HP325905   4.914   4.878   4.732  0.1005  1.4321  0.0841
17544THY    HP425906   4.789   4.763   4.740 -0.3041 -0.4732 -0.4405
17544THY    CP325907   4.610   4.875   4.563 -0.3591  0.0127  0.3112
17544THY    HP525908   4.582   4.907   4.462 -1.9523  0.7418  1.3438
17544THY    HP625909   4.531   4.916   4.627  1.3362  1.4214  1.4824
17544THY    HP725910   4.603   4.765   4.571  1.4301 -0.1141  0.1649
17544THY    CA325911   4.879   4.733   4.485  0.0319 -0.4243  0.1658
17544THY    HA325912   4.839   4.671   4.565  1.4894  1.8127  1.9377
17544THY    CA425913   4.960   4.685   4.380  0.5318 -0.1999  0.0338
17544THY    HA425914   4.986   4.580   4.367 -0.4562 -2.3429 -0.0135
17544THY    CA525915   5.006   4.770   4.284 -1.1566  0.4809 -0.3224
17544THY    CM125916   5.100   4.725   4.177 -0.1722  0.2021  0.5632
17544THY    HM125917   5.203   4.748   4.204 -0.3384  0.0178  1.5797
17544THY    HM225918   5.081   4.769   4.078  0.8489 -0.3956 -0.2856
17544THY    HM325919   5.102   4.616   4.166 -3.1971 -0.8966  0.5034
17544THY    CA625920   4.969   4.906   4.285 -0.3202 -0.2410  0.5575
17544THY    HA625921   5.009   4.970   4.208  2.3260  1.7022  1.4116
17545THY      O25922   6.426   4.780   6.214 -0.2762  0.3652  0.3288
17545THY     HO25923   6.432   4.698   6.266 -1.4089  0.9283  0.5915
17545THY    CA125924   6.299   4.775   6.172 -0.2826 -0.0194  1.0678
17545THY    CA225925   6.232   4.889   6.146 -0.4832  0.0468 -0.2577
17545THY    CP125926   6.302   5.024   6.172 -0.3620  0.5948  0.1693
17545THY    HP125927   6.412   5.021   6.176 -0.2927 -0.4984  0.6924
17545THY    CP225928   6.254   5.069   6.314 -0.4309  0.8430 -0.1682
17545THY    HP225929   6.316   5.147   6.359  0.4391 -1.3549  0.4923
17545THY    HP325930   6.274   4.990   6.387  0.7010  1.1611  0.3983
17545THY    HP425931   6.148   5.096   6.302 -0.1054 -0.6511  0.5693
17545THY    CP325932   6.266   5.131   6.068 -0.3268  0.5019  0.5226
17545THY    HP525933   6.305   5.103   5.969  0.4733  1.1126 -0.5573
17545THY    HP625934   6.320   5.223   6.095  0.4373  2.3416 -0.4310
17545THY    HP725935   6.160   5.155   6.059  0.0705 -2.1718  1.6826
17545THY    CA325936   6.096   4.875   6.107 -0.5695 -0.0005  0.2114
17545THY    HA325937   6.032   4.960   6.086 -1.7303  0.2625 -0.5708
17545THY    CA425938   6.037   4.748   6.087 -0.1633  0.3352  0.3362
17545THY    HA425939   5.937   4.736   6.045 -0.3763  1.0949 -0.6644
17545THY    CA525940   6.111   4.636   6.117  0.4179  0.0331  0.0286
17545THY    CM125941   6.050   4.499   6.108  0.1995 -0.1455  0.7230
17545THY    HM125942   5.950   4.497   6.151 -2.3616 -5.2787  0.6637
17545THY    HM225943   6.107   4.426   6.167  1.3738  0.0378  1.7624
17545THY    HM325944   6.049   4.458   6.006  1.3775  0.2065 -0.2539
17545THY    CA625945   6.244   4.650   6.157  0.0624  0.2894  0.1781
17545THY    HA625946   6.308   4.562   6.163  2.2762 -4.8065  1.0385
17546THY      O25947   0.322   1.100   4.591  0.1234  0.7143  0.3765
17546THY     HO25948   0.279   1.075   4.674  1.7482  1.3383 -0.4436
17546THY    CA125949   0.432   1.014   4.585  0.1118 -0.0876 -0.4031
17546THY    CA225950   0.466   0.935   4.471 -0.4070 -0.1325 -0.2583
17546THY    CP125951   0.382   0.941   4.343  0.2082  0.5091 -0.3790
17546THY    HP125952   0.285   0.985   4.371 -0.2428 -0.2727 -0.8499
17546THY    CP225953   0.351   0.796   4.293 -0.2097 -0.1554  0.1032
17546THY    HP225954   0.314   0.730   4.373  2.0723 -0.5819 -1.8229
17546THY    HP325955   0.436   0.746   4.244 -0.6357 -0.6048 -0.1886
17546THY    HP425956   0.272   0.801   4.217  0.3425 -0.8242 -0.9855
17546THY    CP325957   0.432   1.034   4.234  0.8617  0.7712  0.0238
17546THY    HP525958   0.526   1.005   4.184 -0.6536 -3.5660  1.7904
17546THY    HP625959   0.444   1.126   4.292  0.2953  1.7601 -0.5167
17546THY    HP725960   0.354   1.034   4.157 -0.2528  1.8776  0.1998
17546THY    CA325961   0.586   0.853   4.485 -0.3488 -0.3579  0.7293
17546THY    HA325962   0.616   0.801   4.395 -1.8621 -0.3245 -0.2466
17546THY    CA425963   0.665   0.859   4.599 -0.1244  0.0759  0.1745
17546THY    HA425964   0.762   0.809   4.597  0.3899 -1.4676  1.1572
17546THY    CA525965   0.624   0.935   4.709  0.1680  0.6832  0.1021
17546THY    CM125966   0.719   0.945   4.822  0.4978  0.1335 -0.1795
17546THY    HM125967   0.698   1.034   4.883  2.0166 -1.5815  1.4639
17546THY    HM225968   0.824   0.931   4.796  0.4757  0.2757 -0.6085
17546THY    HM325969   0.699   0.862   4.890  2.3657 -0.0050 -0.7790
17546THY    CA625970   0.511   1.012   4.703  0.1567 -0.3455 -0.0261
17546THY    HA625971   0.491   1.092   4.773 -0.9749  0.0812 -0.6464
17547THY      O25972   8.509   4.061   3.628  0.3028 -0.1130  0.6915
17547THY     HO25973   8.577   4.061   3.558  0.8851  0.4319  0.4630
17547THY    CA125974   8.395   4.114   3.592  0.0453 -0.3762 -0.8148
17547THY    CA225975   8.269   4.080   3.648  0.0627  0.6408  0.1536
17547THY    CP125976   8.266   3.980   3.765  0.1089 -0.1651 -0.3914
17547THY    HP125977   8.347   4.014   3.830 -0.9958  1.1743 -0.2525
17547THY    CP225978   8.314   3.837   3.720 -0.0929  0.4076 -0.6007
17547THY    HP225979   8.402   3.842   3.654  1.8936  2.8347 -1.7098
17547THY    HP325980   8.233   3.788   3.664  0.2081  0.4123 -1.1083
17547THY    HP425981   8.344   3.781   3.809  0.7800  0.5428  0.0538
17547THY    CP325982   8.134   3.967   3.845 -0.3388 -0.2324 -0.3075
17547THY    HP525983   8.053   3.975   3.771  0.0097 -0.6534 -0.5992
17547THY    HP625984   8.133   4.045   3.922  0.0181  0.0922 -0.6229
17547THY    HP725985   8.125   3.877   3.906 -0.4223  0.2099 -0.0000
17547THY    CA325986   8.156   4.141   3.593 -0.5032 -0.2705 -0.3600
17547THY    HA325987   8.055   4.113   3.622 -1.3592 -1.0959  1.6520
17547THY    CA425988   8.164   4.242   3.495 -0.4854 -0.8253 -0.6827
17547THY    HA425989   8.078   4.299   3.459  0.4818  0.7346  1.9267
17547THY    CA525990   8.293   4.285   3.457  0.2571 -0.7664 -0.3661
17547THY    CM125991   8.296   4.394   3.356  0.5142 -0.0998 -0.4689
17547THY    HM125992   8.224   4.469   3.390 -0.0497 -0.3827 -0.8696
17547THY    HM225993   8.259   4.357   3.259  0.4602 -0.3563  0.2386
17547THY    HM325994   8.399   4.431   3.365  0.6860  0.7803 -1.1386
17547THY    CA625995   8.408   4.217   3.499  0.7222 -0.2851  0.3399
17547THY    HA625996   8.506   4.248   3.465  1.7881  0.7249 -1.7199
17548THY      O25997   4.407   4.605   3.875  0.3984  0.3570 -0.5405
17548THY     HO25998   4.441   4.553   3.800 -1.6432 -0.5345 -0.6876
17548THY    CA125999   4.514   4.652   3.937  0.7481  0.4724  0.4448
17548THY    CA226000   4.515   4.709   4.066 -0.0687  0.3793 -0.3821
17548THY    CP126001   4.388   4.716   4.146 -0.3049  0.8800 -0.0341
17548THY    HP126002   4.309   4.643   4.122 -0.8171  1.2492  0.3834
17548THY    CP226003   4.331   4.855   4.152  0.2640  0.2528  0.1425
17548THY    HP226004   4.235   4.850   4.205 -1.5405 -2.5394  2.1242
17548THY    HP326005   4.306   4.886   4.050  0.5814  0.3227  0.6409
17548THY    HP426006   4.397   4.919   4.211 -0.3258  0.7329  0.3123
17548THY    CP326007   4.427   4.668   4.287  0.1669  0.2633  0.2945
17548THY    HP526008   4.452   4.561   4.292 -0.4150  1.0707  0.1890
17548THY    HP626009   4.337   4.679   4.348  0.9898  1.3550  1.2117
17548THY    HP726010   4.507   4.724   4.336 -1.0861  2.1884  0.5046
17548THY    CA326011   4.633   4.766   4.110  0.5153  0.2653 -0.5925
17548THY    HA326012   4.640   4.816   4.205 -0.2400 -0.5178  1.0653
17548THY    CA426013   4.743   4.771   4.025  0.3151  0.4151 -0.1730
17548THY    HA426014   4.835   4.826   4.046  1.3498  0.3517 -1.8053
17548THY    CA526015   4.743   4.713   3.904 -0.2443 -0.2330  0.0653
17548THY    CM126016   4.855   4.724   3.810  0.8244  0.3026 -0.4117
17548THY    HM126017   4.852   4.816   3.751  2.0674  1.8453  0.6819
17548THY    HM226018   4.853   4.637   3.743 -0.6746 -1.3069  0.8064
17548THY    HM326019   4.945   4.731   3.873  0.7755  0.1851  1.7024
17548THY    CA626020   4.627   4.654   3.853 -0.5550 -1.0331  0.3620
17548THY    HA626021   4.626   4.616   3.751  2.2779 -0.2273 -2.2985
17549THY      O26022   1.668   5.117   5.279  0.1707 -0.6587 -0.6216
17549THY     HO26023   1.648   5.206   5.311  0.0856 -0.4871 -0.7026
17549THY    CA126024   1.801   5.092   5.302 -0.2754  0.5455  0.1469
17549THY    CA226025   1.856   4.967   5.290  0.3398  0.3617  0.5460
17549THY    CP126026   1.789   4.841   5.264  0.2172 -0.0889 -0.0094
17549THY    HP126027   1.682   4.861   5.278  0.7827  1.4343  2.2280
17549THY    CP226028   1.813   4.723   5.364 -0.6457  0.3743  0.0601
17549THY    HP226029   1.810   4.763   5.466 -0.5365  0.3153  0.2203
17549THY    HP326030   1.910   4.677   5.342 -0.7581  0.3148 -0.1521
17549THY    HP426031   1.731   4.650   5.371  0.7089 -0.5036 -1.6352
17549THY    CP326032   1.822   4.790   5.124 -0.1952  0.0619 -0.2075
17549THY    HP526033   1.763   4.704   5.089 -0.1118 -1.1668  0.2069
17549THY    HP626034   1.927   4.758   5.124 -0.8153 -1.0649 -2.4278
17549THY    HP726035   1.802   4.872   5.053  0.5813  1.5259  1.2962
17549THY    CA326036   1.993   4.961   5.285 -0.3922  0.4933  0.0724
17549THY    HA326037   2.036   4.863   5.270 -1.3285  2.8073 -0.7597
17549THY    CA426038   2.076   5.066   5.323 -0.1114  0.2956  0.1099
17549THY    HA426039   2.182   5.065   5.302 -0.5554 -2.7415  2.2217
17549THY    CA526040   2.019   5.190   5.349  0.2683  0.2348 -0.1354
17549THY    CM126041   2.106   5.302   5.397  0.8271  0.4103 -0.0345
17549THY    HM126042   2.157   5.276   5.491  2.5722 -0.8733 -1.5161
17549THY    HM226043   2.050   5.395   5.414  0.6773  1.1649 -0.2556
17549THY    HM326044   2.185   5.335   5.329 -0.5949 -2.0402 -1.3443
17549THY    CA626045   1.880   5.201   5.332 -0.6336 -0.4488  0.6054
17549THY    HA626046   1.825   5.290   5.360 -1.5829 -0.5527  0.0635
17550THY      O26047   4.807   8.321   4.837  0.3414  0.0205  0.3603
17550THY     HO26048   4.746   8.247   4.858 -0.7238 -0.1171  1.1761
17550THY    CA126049   4.936   8.269   4.832  0.5373 -0.5791  1.3545
17550THY    CA226050   5.049   8.332   4.775 -0.4536  0.1024  0.4596
17550THY    CP126051   5.032   8.471   4.716  0.7671 -1.1583 -0.6803
17550THY    HP126052   4.986   8.536   4.791  2.6395 -2.1687  1.9575
17550THY    CP226053   4.943   8.475   4.597  0.7608 -0.0249 -0.5522
17550THY    HP226054   4.983   8.424   4.509  1.2751 -0.2540  0.2366
17550THY    HP326055   4.910   8.576   4.568  2.2013  1.1187  0.2913
17550THY    HP426056   4.853   8.422   4.631  1.2602  0.8359 -0.8842
17550THY    CP326057   5.165   8.541   4.688  0.2632 -0.2176  0.1984
17550THY    HP526058   5.155   8.640   4.644  1.5283 -0.4706  0.2366
17550THY    HP626059   5.229   8.491   4.613 -1.1326 -1.4438  0.2073
17550THY    HP726060   5.226   8.563   4.777  3.3624 -2.5305  1.7715
17550THY    CA326061   5.167   8.263   4.776  0.2472 -0.1101 -0.0964
17550THY    HA326062   5.262   8.295   4.734 -1.0390 -2.3538  1.0404
17550THY    CA426063   5.180   8.128   4.828 -0.0570  0.4984  0.2791
17550THY    HA426064   5.276   8.079   4.836 -0.0572 -1.4254 -0.0984
17550THY    CA526065   5.061   8.064   4.871 -0.0245 -0.1632 -0.0208
17550THY    CM126066   5.049   7.923   4.911 -0.5203 -0.0701  0.0146
17550THY    HM126067   5.083   7.906   5.014  1.9303 -0.0058  3.9325
17550THY    HM226068   5.112   7.846   4.866  0.2906 -0.1401  0.7014
17550THY    HM326069   4.946   7.887   4.917 -0.7014  1.1699  0.6839
17550THY    CA626070   4.944   8.137   4.873  0.8120  0.1189  0.1543
17550THY    HA626071   4.849   8.090   4.896 -0.3190 -2.8576  0.6973
17551THY      O26072   8.841   5.370   5.131 -0.6605  0.4507  0.4012
17551THY     HO26073   8.928   5.410   5.110 -0.6215  0.0232  0.0971
17551THY    CA126074   8.836   5.343   5.260  0.1206  0.8778  0.3091
17551THY    CA226075   8.721   5.337   5.335 -0.1857 -0.8153 -0.3098
17551THY    CP126076   8.588   5.377   5.276  0.5028  0.3564 -0.2399
17551THY    HP126077   8.588   5.360   5.168  0.1303  0.4536 -0.8815
17551THY    CP226078   8.561   5.523   5.300 -0.6183 -0.5133 -0.1909
17551THY    HP226079   8.562   5.534   5.409  0.9529 -0.5203  0.0388
17551THY    HP326080   8.470   5.563   5.254  0.4143 -1.7588  0.8443
17551THY    HP426081   8.643   5.587   5.264 -0.9523 -0.5459  0.2251
17551THY    CP326082   8.472   5.288   5.328  0.1098  0.2704 -0.2039
17551THY    HP526083   8.390   5.293   5.255 -0.4695  0.5330 -3.4642
17551THY    HP626084   8.445   5.298   5.434 -0.7532 -0.0129  0.5937
17551THY    HP726085   8.505   5.185   5.311  1.4231 -1.7574  0.4938
17551THY    CA326086   8.725   5.301   5.474  0.2219  1.1755  0.2565
17551THY    HA326087   8.644   5.300   5.546  0.5458  1.5395 -0.3095
17551THY    CA426088   8.854   5.273   5.528 -0.4339 -0.3924 -0.5732
17551THY    HA426089   8.857   5.247   5.634 -0.9183  0.0616  1.0979
17551THY    CA526090   8.970   5.278   5.453 -0.3042 -0.2396 -0.5000
17551THY    CM126091   9.108   5.248   5.516 -0.1271  0.3350  0.1474
17551THY    HM126092   9.160   5.345   5.520  0.4165  0.7976 -0.1601
17551THY    HM226093   9.161   5.164   5.471  2.2793 -0.5698  2.0362
17551THY    HM326094   9.100   5.216   5.620  0.8755  0.0875 -0.9645
17551THY    CA626095   8.962   5.308   5.322  0.3654 -0.0060 -0.5748
17551THY    HA626096   9.052   5.303   5.261  0.3841 -0.1057  0.6455
17552THY      O26097   5.681   6.476   6.187  0.0036  0.6001 -0.0907
17552THY     HO26098   5.685   6.403   6.122  0.9906  0.4575  0.0770
17552THY    CA126099   5.793   6.481   6.260  0.0962  0.1362 -0.2626
17552THY    CA226100   5.819   6.557   6.376 -0.2373  0.6246  0.3053
17552THY    CP126101   5.702   6.651   6.424  0.1332  0.3462  0.3376
17552THY    HP126102   5.617   6.635   6.356  0.1829  0.4538 -0.4349
17552THY    CP226103   5.725   6.799   6.411 -0.4603  0.6498  0.5958
17552THY    HP226104   5.764   6.816   6.310  0.3835  0.3369 -2.6248
17552THY    HP326105   5.796   6.845   6.482 -1.0139  0.3886  1.9080
17552THY    HP426106   5.639   6.865   6.428  0.5384 -1.2269  2.5099
17552THY    CP326107   5.648   6.615   6.557 -0.6571 -0.1806  0.3447
17552THY    HP526108   5.610   6.513   6.568  1.0658  0.6502 -0.2477
17552THY    HP626109   5.570   6.689   6.580  1.1530 -0.0337  2.3422
17552THY    HP726110   5.729   6.621   6.630  0.5102 -1.4736  1.1787
17552THY    CA326111   5.932   6.535   6.459 -0.6861 -0.1809 -0.0074
17552THY    HA326112   5.955   6.595   6.547 -0.6257 -0.4125  0.3146
17552THY    CA426113   6.026   6.446   6.409 -0.8501 -0.0420  0.0981
17552THY    HA426114   6.114   6.430   6.472 -1.0029  0.1877  0.1608
17552THY    CA526115   6.011   6.378   6.284 -0.0600 -0.4200 -0.7364
17552THY    CM126116   6.111   6.289   6.226 -0.2934  0.3353 -0.0196
17552THY    HM126117   6.164   6.233   6.304 -1.2452  0.7971 -0.2912
17552THY    HM226118   6.189   6.344   6.172 -2.6433 -0.7554  2.5052
17552THY    HM326119   6.054   6.216   6.166 -0.8497 -0.0014  0.6846
17552THY    CA626120   5.895   6.395   6.209  0.4329  0.4404 -0.3143
17552THY    HA626121   5.876   6.344   6.115  1.0398  1.7012 -3.0881
17553THY      O26122   5.461   8.581   2.826  0.5907  0.1371  0.2348
17553THY     HO26123   5.474   8.602   2.921 -1.7636  0.9285 -1.5106
17553THY    CA126124   5.539   8.472   2.811 -1.1572 -0.0594  0.1547
17553THY    CA226125   5.534   8.391   2.703 -0.0837  0.6420 -0.2248
17553THY    CP126126   5.435   8.420   2.584  0.3311 -0.0798 -0.3426
17553THY    HP126127   5.368   8.504   2.605 -1.4205  0.7256 -1.8692
17553THY    CP226128   5.346   8.294   2.553 -0.1709 -0.3414 -0.7197
17553THY    HP226129   5.274   8.330   2.479 -0.0259 -0.0690  0.1398
17553THY    HP326130   5.294   8.250   2.639 -1.6035 -0.2233  1.1051
17553THY    HP426131   5.412   8.214   2.520  1.8624  3.5777 -0.9059
17553THY    CP326132   5.507   8.469   2.463  0.1644 -0.1856  0.2901
17553THY    HP526133   5.583   8.398   2.429 -1.2541 -0.0514 -1.3743
17553THY    HP626134   5.525   8.577   2.467 -0.5054 -2.8791  0.5738
17553THY    HP726135   5.435   8.465   2.380 -1.4064  1.1431 -0.4250
17553THY    CA326136   5.629   8.290   2.679  0.2956 -1.0106  0.3761
17553THY    HA326137   5.632   8.229   2.589 -0.2351  0.1184 -1.3936
17553THY    CA426138   5.720   8.268   2.783 -0.8582  0.1293 -0.1832
17553THY    HA426139   5.801   8.196   2.772  0.1471  0.9903  0.7887
17553THY    CA526140   5.724   8.352   2.899  0.0791 -0.1193  0.1751
17553THY    CM126141   5.818   8.333   3.011 -0.2943 -0.0546  0.3752
17553THY    HM126142   5.900   8.403   2.991  0.8752 -0.7749 -1.1176
17553THY    HM226143   5.850   8.228   3.002 -3.2113  0.0476 -0.5945
17553THY    HM326144   5.771   8.343   3.110  0.8086  0.4433  0.8965
17553THY    CA626145   5.631   8.448   2.916 -0.1093 -0.8244 -0.2405
17553THY    HA626146   5.631   8.499   3.012  1.4081  0.2830 -2.2076
17554THY      O26147   6.789   0.416   7.532 -0.5140 -0.0907  0.3533
17554THY     HO26148   6.713   0.474   7.551 -0.5849  0.4500  0.0935
17554THY    CA126149   6.901   0.463   7.586  0.3114 -0.3941 -0.7041
17554THY    CA226150   7.021   0.483   7.514  0.1005  0.9617  0.7296
17554THY    CP126151   7.038   0.423   7.371  0.5357  0.6654  0.0613
17554THY    HP126152   6.948   0.375   7.332 -0.1932 -1.0545  2.6586
17554THY    CP226153   7.148   0.322   7.353 -0.2049 -0.4058  0.2790
17554THY    HP226154   7.163   0.271   7.449 -1.5519  0.5515  1.5967
17554THY    HP326155   7.244   0.375   7.353  0.3583  0.3950 -0.7215
17554THY    HP426156   7.147   0.265   7.259  1.5318  0.3701 -1.1111
17554THY    CP326157   7.061   0.531   7.267 -1.0947  0.0330 -0.0772
17554THY    HP526158   6.973   0.596   7.259 -1.6458  0.8411 -0.7020
17554THY    HP626159   7.082   0.484   7.170  1.9048  1.0339 -1.0257
17554THY    HP726160   7.147   0.589   7.302 -1.2459  0.5990 -0.1825
17554THY    CA326161   7.123   0.550   7.578  0.2256  0.5681 -0.2055
17554THY    HA326162   7.207   0.578   7.516 -0.3438  0.4483  1.3139
17554THY    CA426163   7.113   0.594   7.707 -0.6018 -0.7150  0.1717
17554THY    HA426164   7.189   0.655   7.754  0.0874 -0.6823 -0.6946
17554THY    CA526165   6.994   0.585   7.770  0.9445 -0.1784  0.3993
17554THY    CM126166   6.973   0.653   7.902 -0.2045  0.5888 -0.1375
17554THY    HM126167   7.049   0.609   7.968  0.7991 -1.8336 -2.3090
17554THY    HM226168   6.872   0.630   7.938 -1.2292 -2.6326 -1.2897
17554THY    HM326169   6.990   0.761   7.901  2.0587  0.8023 -0.4457
17554THY    CA626170   6.886   0.515   7.714  0.0517  0.3797  0.0490
17554THY    HA626171   6.791   0.502   7.765  0.1443  0.4278 -0.4876
17555THY      O26172   3.871   8.845   4.009 -0.5347  0.2760  0.1086
17555THY     HO26173   3.823   8.927   4.028  0.5423 -0.4874  0.9440
17555THY    CA126174   3.925   8.809   4.121 -1.0551  0.0439 -0.3964
17555THY    CA226175   4.041   8.726   4.135  0.2342 -0.6735 -0.4873
17555THY    CP126176   4.113   8.676   4.010  0.8337  0.5328 -0.8789
17555THY    HP126177   4.100   8.753   3.933  0.7826  2.7530  1.4804
17555THY    CP226178   4.050   8.548   3.953 -1.0134 -0.0316 -0.1169
17555THY    HP226179   3.950   8.567   3.910 -0.8346 -0.4873 -0.2005
17555THY    HP326180   4.051   8.469   4.029 -0.5785  0.1654  0.0785
17555THY    HP426181   4.121   8.527   3.873  1.2790  1.3136  2.0312
17555THY    CP326182   4.260   8.674   4.028 -0.2758  0.1708 -0.3959
17555THY    HP526183   4.291   8.584   4.083 -0.8120  0.5699 -0.3449
17555THY    HP626184   4.298   8.766   4.074 -2.4116 -2.0173  1.7004
17555THY    HP726185   4.305   8.669   3.928 -2.9732 -1.0755 -1.7332
17555THY    CA326186   4.075   8.686   4.268 -0.0708 -0.3037 -0.0621
17555THY    HA326187   4.165   8.627   4.285 -1.0410 -0.1937 -1.5679
17555THY    CA426188   4.011   8.739   4.382  0.1286  0.2925  0.2632
17555THY    HA426189   4.037   8.707   4.482  0.9633 -0.6407 -2.2648
17555THY    CA526190   3.907   8.831   4.366  0.3488  0.5044  0.1145
17555THY    CM126191   3.839   8.887   4.483  0.0032 -0.2185  0.7273
17555THY    HM126192   3.744   8.839   4.511 -0.4292 -2.1037  0.3921
17555THY    HM226193   3.816   8.994   4.485  0.5809  0.7723  0.8456
17555THY    HM326194   3.908   8.878   4.568 -0.4704  0.1535  0.5701
17555THY    CA626195   3.867   8.865   4.240  0.2092  0.1531  0.1527
17555THY    HA626196   3.782   8.930   4.227 -0.1871  0.6235 -0.2640
17556THY      O26197   8.309   7.183   4.602 -0.5230  0.4960  0.4806
17556THY     HO26198   8.269   7.265   4.635  0.6567  0.0714  1.2554
17556THY    CA126199   8.440   7.187   4.652  0.8242 -0.1770 -0.4071
17556THY    CA226200   8.540   7.091   4.622  0.5142 -0.1879  0.1157
17556THY    CP126201   8.496   6.974   4.528  0.2633 -0.4703 -0.0653
17556THY    HP126202   8.389   6.951   4.540 -0.2037 -2.1808  1.0486
17556THY    CP226203   8.578   6.840   4.543  0.1362  0.0051 -0.3593
17556THY    HP226204   8.545   6.757   4.479  0.5033  0.4790 -0.8814
17556THY    HP326205   8.575   6.806   4.647  1.7389  1.1327  2.5587
17556THY    HP426206   8.685   6.866   4.537  0.0252  1.3427  0.5017
17556THY    CP326207   8.514   7.026   4.386  0.1992 -0.1807 -0.3457
17556THY    HP526208   8.474   6.950   4.317  0.9186 -2.4014  1.1743
17556THY    HP626209   8.613   7.061   4.356  1.6453  1.1593 -2.9946
17556THY    HP726210   8.447   7.112   4.378 -2.1679 -1.2008 -2.1554
17556THY    CA326211   8.669   7.109   4.676  0.0338  0.3716 -0.7581
17556THY    HA326212   8.753   7.046   4.646  1.7012  1.1144  0.9927
17556THY    CA426213   8.697   7.217   4.761  0.8948 -0.0077 -0.4542
17556THY    HA426214   8.790   7.219   4.818  0.1406  1.2934 -1.2604
17556THY    CA526215   8.601   7.314   4.784 -0.2962  0.3289 -0.3432
17556THY    CM126216   8.628   7.431   4.877  0.1867 -0.2757  0.0177
17556THY    HM126217   8.711   7.405   4.944  1.3038 -1.7124 -0.2764
17556THY    HM226218   8.540   7.453   4.938  1.6576  3.4446 -3.1589
17556THY    HM326219   8.663   7.519   4.822  2.7873  2.4180  0.8232
17556THY    CA626220   8.473   7.297   4.729  0.4750  0.6631 -0.8099
17556THY    HA626221   8.401   7.374   4.753  0.5042  0.5067 -0.7332
17557THY      O26222   5.150   7.591   3.002 -0.4290 -0.1183  0.5498
17557THY     HO26223   5.164   7.542   3.085 -1.0497 -0.1335  0.3384
17557THY    CA126224   5.280   7.625   2.959  0.9346  0.3753  0.4781
17557THY    CA226225   5.302   7.691   2.835 -0.2090  0.0735  0.2832
17557THY    CP126226   5.189   7.739   2.749  0.4067 -0.0659  0.3208
17557THY    HP126227   5.093   7.718   2.798  0.6648  0.8103  1.1069
17557THY    CP226228   5.197   7.671   2.614 -0.2832 -0.1885 -0.0420
17557THY    HP226229   5.284   7.700   2.554 -1.4638 -2.0403 -0.1427
17557THY    HP326230   5.111   7.707   2.557  0.4749 -1.1972  0.2277
17557THY    HP426231   5.199   7.563   2.635  0.0837  0.2107  0.0378
17557THY    CP326232   5.196   7.893   2.743 -0.4001  0.1499 -0.9615
17557THY    HP526233   5.297   7.931   2.721 -1.1302 -2.4878 -0.3317
17557THY    HP626234   5.169   7.925   2.844 -0.9823  0.1757 -1.5195
17557THY    HP726235   5.125   7.922   2.665 -2.1208  0.6305 -3.5633
17557THY    CA326236   5.437   7.719   2.800  0.4708  0.4945  0.0643
17557THY    HA326237   5.456   7.751   2.697  0.6517  0.8945  1.2967
17557THY    CA426238   5.532   7.714   2.904 -0.1529  0.2387  0.0483
17557THY    HA426239   5.632   7.753   2.891 -0.6290  2.5758  2.2845
17557THY    CA526240   5.505   7.654   3.029 -0.3072 -0.1998 -0.1279
17557THY    CM126241   5.618   7.643   3.131 -0.4792  0.2841  0.0695
17557THY    HM126242   5.644   7.734   3.187 -1.1208  0.2282  0.2898
17557THY    HM226243   5.708   7.614   3.076  0.7357  2.0791  0.3076
17557THY    HM326244   5.600   7.566   3.207  0.3216  1.5927  1.1218
17557THY    CA626245   5.382   7.599   3.044  0.0105 -0.7876 -0.4424
17557THY    HA626246   5.367   7.564   3.146  0.6659 -0.4260  0.3053
17558THY      O26247   1.731   8.632   4.095 -0.1625  0.1581 -0.5186
17558THY     HO26248   1.755   8.539   4.107  1.7134  1.8635  0.1151
17558THY    CA126249   1.854   8.690   4.086 -0.0447 -0.3158 -0.0682
17558THY    CA226250   1.870   8.833   4.067  0.6681 -0.1053 -0.1051
17558THY    CP126251   1.752   8.924   4.066  0.4592 -0.2488 -0.3363
17558THY    HP126252   1.677   8.889   4.139  0.4058 -0.6814 -1.1376
17558THY    CP226253   1.686   8.922   3.929  0.3215  0.1661  0.6761
17558THY    HP226254   1.600   8.990   3.935  0.1003  2.0155  0.2858
17558THY    HP326255   1.644   8.824   3.905 -1.0627 -1.5305  1.5988
17558THY    HP426256   1.756   8.951   3.850  0.0632  0.0803  1.0878
17558THY    CP326257   1.777   9.069   4.097  0.2528  0.4646 -0.0047
17558THY    HP526258   1.844   9.092   4.180  0.6836 -0.3582  1.8786
17558THY    HP626259   1.686   9.126   4.117  0.7096  0.9990  0.5539
17558THY    HP726260   1.832   9.108   4.010 -1.6538 -0.5495  0.5573
17558THY    CA326261   1.998   8.885   4.074 -0.1283  0.5040  0.3875
17558THY    HA326262   2.020   8.991   4.063 -0.3593  2.2014  0.6497
17558THY    CA426263   2.111   8.797   4.091  0.1589 -0.3470 -0.4291
17558THY    HA426264   2.209   8.843   4.091 -0.0842 -0.6096  0.0964
17558THY    CA526265   2.097   8.661   4.090 -0.6439  0.3689  0.5348
17558THY    CM126266   2.217   8.571   4.090 -0.6398  0.4522  0.6149
17558THY    HM126267   2.306   8.623   4.053 -0.9336  0.0476  0.8351
17558THY    HM226268   2.207   8.478   4.034 -0.6636  1.5723 -0.0744
17558THY    HM326269   2.242   8.531   4.188  0.4699  0.6976  1.8358
17558THY    CA626270   1.969   8.615   4.104  0.6695  0.4419  0.2766
17558THY    HA626271   1.960   8.507   4.115  1.5462 -0.4342  0.0977
17559THY      O26272   0.914   3.153   2.468 -0.2874 -0.0875 -0.1509
17559THY     HO26273   0.859   3.125   2.543 -1.6282 -0.0190  2.3661
17559THY    CA126274   1.037   3.099   2.493  1.2692 -0.0962  0.0726
17559THY    CA226275   1.142   3.143   2.412 -0.0349 -0.4007 -0.1154
17559THY    CP126276   1.125   3.245   2.309  0.1080  0.2416 -0.1535
17559THY    HP126277   1.030   3.298   2.312  0.0705  0.0270 -0.2068
17559THY    CP226278   1.118   3.186   2.168  0.1667 -0.3522  0.1336
17559THY    HP226279   1.043   3.105   2.167 -0.5233  0.3522  0.7462
17559THY    HP326280   1.219   3.149   2.148  1.7965 -1.3199  4.4682
17559THY    HP426281   1.111   3.275   2.104 -2.1068  0.5660  0.7137
17559THY    CP326282   1.225   3.359   2.319  0.4398 -0.5116 -0.1632
17559THY    HP526283   1.318   3.313   2.282  0.4870  1.4735 -1.8086
17559THY    HP626284   1.234   3.411   2.415  0.8205 -1.0542  0.8106
17559THY    HP726285   1.198   3.436   2.246  1.0479  1.0405  1.5857
17559THY    CA326286   1.272   3.096   2.439  0.0626  0.2538  0.1618
17559THY    HA326287   1.358   3.108   2.375 -0.4066 -1.3943 -3.6386
17559THY    CA426288   1.279   2.993   2.537 -0.4504 -0.1821  0.2278
17559THY    HA426289   1.375   2.949   2.560  0.4419  1.5499  2.8586
17559THY    CA526290   1.164   2.935   2.600 -0.3905 -0.1265  0.2796
17559THY    CM126291   1.166   2.822   2.701  0.2589  0.4170 -0.3403
17559THY    HM126292   1.071   2.770   2.714  0.2802 -0.6275 -0.6690
17559THY    HM226293   1.178   2.859   2.803 -0.6378  0.5876 -0.4964
17559THY    HM326294   1.240   2.746   2.674 -1.0595 -0.1141 -1.4755
17559THY    CA626295   1.046   3.007   2.597 -0.0560 -0.0565 -0.0551
17559THY    HA626296   0.967   2.981   2.667 -1.2738 -0.6112  1.9237
17560THY      O26297   2.895   8.800   1.827 -0.5280  0.1552 -0.3120
17560THY     HO26298   2.860   8.718   1.787  2.0532 -2.3751 -0.3031
17560THY    CA126299   2.810   8.835   1.922  0.3306 -0.2664 -0.5275
17560THY    CA226300   2.856   8.909   2.033 -0.0850 -0.7618  0.7155
17560THY    CP126301   3.005   8.955   2.042  0.2427 -0.3050 -0.8145
17560THY    HP126302   3.063   8.905   1.964 -0.1259 -1.2877  0.2294
17560THY    CP226303   3.059   8.923   2.181 -0.0654  0.2155 -0.5890
17560THY    HP226304   3.058   8.816   2.206 -0.0334 -0.2818 -0.7054
17560THY    HP326305   3.016   8.989   2.257  0.9755  0.1192  0.2260
17560THY    HP426306   3.161   8.962   2.174 -0.0155  2.0250 -0.3156
17560THY    CP326307   3.018   9.103   2.020  0.0874 -0.4820 -0.4147
17560THY    HP526308   3.122   9.135   2.013  0.4346  1.0014 -1.1135
17560THY    HP626309   2.972   9.161   2.101  1.9121  1.7298 -1.8834
17560THY    HP726310   2.964   9.138   1.931  0.3634  0.1411  1.7220
17560THY    CA326311   2.759   8.949   2.129  0.0170  0.1617 -0.0654
17560THY    HA326312   2.792   9.012   2.212  0.9632  0.1127 -0.4785
17560THY    CA426313   2.626   8.915   2.106 -0.2173 -0.0330 -0.0273
17560THY    HA426314   2.546   8.948   2.172 -0.2171 -0.5253  1.0254
17560THY    CA526315   2.585   8.835   2.003 -0.5629 -0.1523  0.3153
17560THY    CM126316   2.437   8.795   1.989 -0.2056 -0.5803 -0.5935
17560THY    HM126317   2.373   8.845   2.063  2.7437  2.0755 -0.4125
17560THY    HM226318   2.423   8.693   2.027 -0.9906  0.0843 -0.2465
17560THY    HM326319   2.394   8.799   1.888  0.6834 -1.1079 -2.6896
17560THY    CA626320   2.678   8.791   1.914  0.5465  0.5902 -0.6557
17560THY    HA626321   2.654   8.729   1.828  0.7165 -1.1829  1.6355
17561THY      O26322   8.959   0.736   7.189 -0.1012 -0.3697 -0.7212
17561THY     HO26323   8.932   0.696   7.104  1.1836 -2.4901  2.5269
17561THY    CA126324   9.093   0.704   7.199  0.7990 -0.2412  0.3728
17561THY    CA226325   9.172   0.740   7.307 -0.1330 -0.7697 -0.0972
17561THY    CP126326   9.113   0.826   7.418  0.5248  0.3998 -0.2590
17561THY    HP126327   9.030   0.874   7.364  2.4930 -0.3959  2.4691
17561THY    CP226328   9.202   0.941   7.472  0.2831  0.0229 -0.3415
17561THY    HP226329   9.154   1.002   7.550  0.2517  0.1792 -0.5659
17561THY    HP326330   9.231   1.007   7.389 -1.9214 -1.4422 -1.0832
17561THY    HP426331   9.289   0.890   7.513  0.2483  0.6675  0.1060
17561THY    CP326332   9.059   0.750   7.542  0.3984 -0.3921  0.1082
17561THY    HP526333   9.048   0.826   7.621 -1.0457 -0.0522 -0.4232
17561THY    HP626334   9.139   0.680   7.569  1.6995  0.2771  1.7788
17561THY    HP726335   8.959   0.710   7.522  0.6976 -0.1776 -0.7522
17561THY    CA326336   9.306   0.694   7.323  0.2255  0.3630 -0.0145
17561THY    HA326337   9.360   0.716   7.414  1.3679 -0.8717  2.8097
17561THY    CA426338   9.367   0.624   7.220 -0.1746 -0.0293  0.0153
17561THY    HA426339   9.469   0.588   7.223 -0.1192  0.5343  0.2075
17561THY    CA526340   9.287   0.592   7.103 -0.5084 -0.2826 -0.4977
17561THY    CM126341   9.343   0.513   6.993 -0.0890  0.2197  0.0160
17561THY    HM126342   9.302   0.412   6.993  0.1412 -0.6723 -0.0830
17561THY    HM226343   9.450   0.495   7.008 -0.1803  0.3657 -0.4184
17561THY    HM326344   9.335   0.557   6.893 -0.2731 -0.1707 -0.8965
17561THY    CA626345   9.147   0.617   7.104 -0.5581 -0.2483  0.4300
17561THY    HA626346   9.088   0.582   7.020  0.5396 -0.5911 -0.6722
17562THY      O26347   9.103   4.602   4.434  0.2108  0.0982  0.6593
17562THY     HO26348   9.173   4.670   4.437  1.4995 -0.2773 -0.6081
17562THY    CA126349   9.135   4.514   4.522 -0.6719  0.2829  0.1623
17562THY    CA226350   9.069   4.389   4.536 -0.2658  0.6857 -0.6944
17562THY    CP126351   8.956   4.343   4.439  0.2863  0.2660 -0.0215
17562THY    HP126352   8.921   4.420   4.370 -1.8616  0.5186 -0.7083
17562THY    CP226353   8.836   4.300   4.536  0.2669  1.3781  0.0475
17562THY    HP226354   8.756   4.261   4.472  0.2419  1.8609 -0.7012
17562THY    HP326355   8.793   4.385   4.591 -1.9369 -1.3238  0.8517
17562THY    HP426356   8.864   4.217   4.601  0.6610 -0.5834 -1.4370
17562THY    CP326357   9.011   4.232   4.344  0.9386 -0.1168  0.2221
17562THY    HP526358   9.021   4.132   4.386 -0.4123 -1.0450 -0.3312
17562THY    HP626359   9.114   4.260   4.321  1.6655 -0.5574 -2.5212
17562THY    HP726360   8.945   4.229   4.256  0.2284  0.2753  2.2747
17562THY    CA326361   9.133   4.287   4.617 -0.7222  0.1069 -0.6037
17562THY    HA326362   9.094   4.186   4.618 -1.7345  1.4641 -0.2226
17562THY    CA426363   9.253   4.322   4.694  1.1721 -0.5747  0.3266
17562THY    HA426364   9.302   4.257   4.766 -0.2960 -0.8116 -1.1190
17562THY    CA526365   9.305   4.446   4.676  0.5135  0.0716 -0.6139
17562THY    CM126366   9.425   4.488   4.755 -0.6858  0.8456  0.3309
17562THY    HM126367   9.426   4.433   4.849  2.3312  1.4006  1.1632
17562THY    HM226368   9.432   4.597   4.770 -2.0178  1.9619  0.2947
17562THY    HM326369   9.514   4.456   4.700 -0.1917  0.9623  1.4392
17562THY    CA626370   9.244   4.544   4.604 -0.0377 -0.1630 -0.9403
17562THY    HA626371   9.302   4.636   4.603  1.0899  1.3477 -1.5900
17563THY      O26372   0.348   0.732   6.092 -0.1843  0.5219 -0.2978
17563THY     HO26373   0.355   0.788   6.012  3.1296  0.9790  0.1510
17563THY    CA126374   0.434   0.785   6.193 -0.8501  0.2241  0.7044
17563THY    CA226375   0.421   0.748   6.330 -0.2783  0.0909 -0.2577
17563THY    CP126376   0.307   0.655   6.364 -0.2724 -0.3162 -0.4207
17563THY    HP126377   0.235   0.663   6.282  0.2482 -0.7017  0.5065
17563THY    CP226378   0.227   0.691   6.498  0.4442 -0.1360  0.1447
17563THY    HP226379   0.299   0.701   6.579  1.2596 -0.6356 -1.3275
17563THY    HP326380   0.152   0.614   6.521 -1.5763 -0.2987  1.9562
17563THY    HP426381   0.158   0.776   6.492 -2.6183 -0.9121 -2.1825
17563THY    CP326382   0.355   0.510   6.367 -0.4196  0.0855 -0.3586
17563THY    HP526383   0.443   0.484   6.428 -0.0766 -0.7046 -1.1041
17563THY    HP626384   0.382   0.476   6.266  0.0463  0.6453 -1.7438
17563THY    HP726385   0.272   0.446   6.401 -0.1135 -0.2284 -0.9318
17563THY    CA326386   0.513   0.810   6.423 -0.4859 -0.6786  0.9485
17563THY    HA326387   0.503   0.787   6.529 -0.8156 -1.0267 -0.6212
17563THY    CA426388   0.608   0.902   6.372 -0.7192  0.4460  0.0454
17563THY    HA426389   0.668   0.961   6.441 -1.0324 -0.3566  1.3665
17563THY    CA526390   0.640   0.925   6.236 -0.1282 -0.1814 -0.5739
17563THY    CM126391   0.732   1.037   6.185  0.5142 -0.4585  0.1250
17563THY    HM126392   0.822   0.997   6.137  1.5707 -1.1084  2.9990
17563THY    HM226393   0.749   1.105   6.269  0.4108 -0.2125 -0.1498
17563THY    HM326394   0.685   1.087   6.099 -0.6317  0.3990  0.5744
17563THY    CA626395   0.540   0.872   6.149 -0.1366 -0.4257 -0.1213
17563THY    HA626396   0.539   0.901   6.044  0.4732 -0.0473  1.3639
17564THY      O26397   3.619   8.954   5.856  0.2885  0.6807 -0.0348
17564THY     HO26398   3.694   8.983   5.802 -0.8298  0.4282  2.6067
17564THY    CA126399   3.533   9.055   5.870  0.3454 -0.1024  0.9324
17564THY    CA226400   3.392   9.026   5.887 -0.2466 -0.2644 -0.8152
17564THY    CP126401   3.337   8.883   5.876  0.4696 -0.1815 -0.3782
17564THY    HP126402   3.409   8.804   5.850 -1.6429  2.7321 -3.5479
17564THY    CP226403   3.244   8.868   5.760 -0.3779 -0.4125  0.1524
17564THY    HP226404   3.293   8.917   5.675 -1.6893  0.6117  3.5273
17564THY    HP326405   3.150   8.918   5.787 -1.1635 -0.8131 -1.0760
17564THY    HP426406   3.227   8.762   5.740  0.0360 -1.0806  0.2067
17564THY    CP326407   3.269   8.834   6.014 -0.4113  0.3920  0.0550
17564THY    HP526408   3.185   8.766   5.994 -0.0478 -2.8153  0.3864
17564THY    HP626409   3.252   8.925   6.072  0.8446  0.5120  0.2217
17564THY    HP726410   3.339   8.777   6.075 -0.0061  0.9154  1.0986
17564THY    CA326411   3.302   9.131   5.892 -0.0531  0.1224  0.0799
17564THY    HA326412   3.196   9.106   5.895 -0.0368 -0.9843 -0.1598
17564THY    CA426413   3.347   9.260   5.885  0.2256  0.5801  0.1662
17564THY    HA426414   3.277   9.342   5.891  1.1556  1.4612  0.9196
17564THY    CA526415   3.485   9.292   5.873 -1.3021 -0.1857  0.6959
17564THY    CM126416   3.535   9.432   5.871 -0.4094 -0.0075 -0.1548
17564THY    HM126417   3.462   9.495   5.819 -0.9425  0.7279 -0.1522
17564THY    HM226418   3.624   9.435   5.806  0.7899  1.5842  1.2828
17564THY    HM326419   3.565   9.479   5.966  1.2102  0.3190 -1.6995
17564THY    CA626420   3.578   9.188   5.878  0.2075 -0.2977  0.2059
17564THY    HA626421   3.685   9.208   5.872  0.4952  0.1911 -1.1386
17565THY      O26422   0.481   7.972   7.059 -0.1616  0.4795 -0.1842
17565THY     HO26423   0.521   7.978   6.971 -1.1639  0.0852  1.1780
17565THY    CA126424   0.437   8.099   7.084 -0.2449 -0.8112 -0.4683
17565THY    CA226425   0.419   8.160   7.214 -0.3333 -0.2483  0.1487
17565THY    CP126426   0.461   8.086   7.340 -0.5464  0.2635 -0.1186
17565THY    HP126427   0.477   7.980   7.316 -1.0069 -0.4185 -0.0413
17565THY    CP226428   0.349   8.091   7.453 -0.0722 -0.3833 -0.6758
17565THY    HP226429   0.362   8.016   7.532  2.2958 -0.1068 -0.0467
17565THY    HP326430   0.247   8.093   7.412  0.0148 -0.6380  2.5328
17565THY    HP426431   0.361   8.191   7.494  0.3500 -1.1610 -0.4000
17565THY    CP326432   0.597   8.136   7.396  0.0724  0.2161  0.3610
17565THY    HP526433   0.686   8.109   7.339  0.2357  1.0842 -1.0155
17565THY    HP626434   0.610   8.076   7.487 -0.1849  1.0165  1.4710
17565THY    HP726435   0.597   8.243   7.423 -1.2233  1.8342 -0.0076
17565THY    CA326436   0.362   8.291   7.229 -0.0655 -0.1754  0.5197
17565THY    HA326437   0.340   8.325   7.329 -1.4321  0.3092 -1.5680
17565THY    CA426438   0.307   8.349   7.113  0.3960  0.2569  0.1459
17565THY    HA426439   0.262   8.447   7.124  2.4230  1.7077  0.9947
17565THY    CA526440   0.321   8.283   6.995  0.1237  0.4359 -0.1758
17565THY    CM126441   0.249   8.327   6.867 -0.8331 -0.4112  0.3050
17565THY    HM126442   0.320   8.332   6.785 -0.0011  0.2066 -0.8361
17565THY    HM226443   0.194   8.420   6.885 -1.2754  0.4497 -0.1040
17565THY    HM326444   0.169   8.256   6.843  0.9049 -2.9352 -0.9357
17565THY    CA626445   0.387   8.161   6.976  0.1190 -0.0393  0.2442
17565THY    HA626446   0.380   8.113   6.878 -1.9373 -0.3905  1.1686
17566THY      O26447   2.527   7.030   7.058  0.4763 -0.3422 -0.1536
17566THY     HO26448   2.446   7.031   7.111  1.1868  0.8114 -1.2122
17566THY    CA126449   2.603   6.924   7.102 -0.0838  0.0122  0.2659
17566THY    CA226450   2.741   6.912   7.088 -0.2044  0.7234 -1.0236
17566THY    CP126451   2.813   7.024   7.003 -0.3061  0.1676 -0.5547
17566THY    HP126452   2.737   7.096   6.972  0.0973  1.0437  0.2700
17566THY    CP226453   2.881   6.970   6.878  0.1288  0.0497  0.7665
17566THY    HP226454   2.806   6.924   6.813 -0.3765  0.9163  0.3353
17566THY    HP326455   2.954   6.891   6.897 -1.5794  2.5681 -0.3694
17566THY    HP426456   2.917   7.058   6.824 -0.0870 -0.2663  0.6585
17566THY    CP326457   2.926   7.091   7.096 -0.2419  0.4106  0.0225
17566THY    HP526458   2.888   7.095   7.199 -0.2256  0.4522 -0.7619
17566THY    HP626459   2.963   7.188   7.060  1.0779  0.4964 -0.4265
17566THY    HP726460   3.011   7.022   7.092 -1.8573 -2.0088 -2.0146
17566THY    CA326461   2.814   6.816   7.153  0.2272  1.2537  0.6159
17566THY    HA326462   2.922   6.820   7.159  0.5298 -0.1673 -2.3327
17566THY    CA426463   2.750   6.720   7.237  0.5354  0.3795  0.1008
17566THY    HA426464   2.803   6.647   7.297  0.5373 -0.4935 -0.6383
17566THY    CA526465   2.603   6.717   7.251 -0.2290 -0.2549 -0.1990
17566THY    CM126466   2.535   6.614   7.334 -0.2932 -0.2238 -0.1448
17566THY    HM126467   2.547   6.644   7.438 -2.5262  0.1866 -0.4936
17566THY    HM226468   2.583   6.516   7.342 -1.3124 -3.3328 -1.0372
17566THY    HM326469   2.428   6.593   7.317 -0.1680  0.8714 -1.8021
17566THY    CA626470   2.537   6.817   7.173 -0.5778 -0.1947 -0.3155
17566THY    HA626471   2.431   6.825   7.197  0.0107  1.9573  2.5366
17567THY      O26472   6.045   6.613   3.468  0.1405  0.1676 -0.3392
17567THY     HO26473   6.011   6.530   3.430  3.2854 -2.8702 -0.4489
17567THY    CA126474   6.071   6.603   3.600  0.0217 -0.0001  0.3728
17567THY    CA226475   6.082   6.719   3.682 -0.2624  0.0754 -0.0783
17567THY    CP126476   6.087   6.862   3.622  0.0077 -0.7313  0.8772
17567THY    HP126477   6.093   6.846   3.514 -1.5754 -0.9783  1.6921
17567THY    CP226478   6.204   6.953   3.669  0.3631  0.7449  0.0664
17567THY    HP226479   6.189   7.008   3.763  2.7959  0.1675  1.8910
17567THY    HP326480   6.221   7.031   3.595 -0.4344  2.0848  1.5773
17567THY    HP426481   6.295   6.894   3.682  1.1758  0.7550  1.2833
17567THY    CP326482   5.950   6.917   3.651 -0.8102  0.7317 -0.1101
17567THY    HP526483   5.928   6.905   3.757 -2.1788  0.9104  3.0621
17567THY    HP626484   5.875   6.863   3.590 -1.1671  0.2047  0.9467
17567THY    HP726485   5.948   7.023   3.622 -0.9889  0.2478 -0.2403
17567THY    CA326486   6.087   6.708   3.820 -0.1209  0.0480 -0.4411
17567THY    HA326487   6.119   6.786   3.888  0.3723  0.9673 -1.4353
17567THY    CA426488   6.079   6.585   3.877  0.1671 -0.1392 -0.1029
17567THY    HA426489   6.106   6.574   3.982 -0.0811 -0.0553  0.0656
17567THY    CA526490   6.060   6.469   3.798 -0.9118 -0.4682  0.2833
17567THY    CM126491   6.050   6.333   3.863 -0.5032  0.5702  0.2600
17567THY    HM126492   5.953   6.282   3.850  0.1772  0.4309 -1.0500
17567THY    HM226493   6.069   6.355   3.968  2.1047 -0.0434  1.2912
17567THY    HM326494   6.137   6.268   3.845  0.4961  2.1116  1.1121
17567THY    CA626495   6.053   6.478   3.665  0.2488  0.2129 -0.0060
17567THY    HA626496   6.030   6.385   3.613 -1.8425 -0.6467  0.9225
17568THY      O26497   3.371   3.944   5.101 -0.0997  0.1262  0.6205
17568THY     HO26498   3.342   3.868   5.155  1.2991 -0.9346 -0.7468
17568THY    CA126499   3.266   4.001   5.053 -0.7178  0.1393  0.0429
17568THY    CA226500   3.271   4.136   5.001  0.0099 -0.7786 -0.1088
17568THY    CP126501   3.406   4.212   4.997 -0.1659  0.2565 -0.4615
17568THY    HP126502   3.491   4.144   4.980 -0.2263 -0.7649 -0.2895
17568THY    CP226503   3.439   4.265   5.136 -0.6564  0.2860 -0.2319
17568THY    HP226504   3.539   4.307   5.149 -1.3314  0.4083  1.4016
17568THY    HP326505   3.427   4.190   5.215 -1.0131 -1.1323 -1.7232
17568THY    HP426506   3.366   4.344   5.158 -0.1467  1.0526  0.0349
17568THY    CP326507   3.412   4.320   4.889 -0.4019  0.6582 -0.2912
17568THY    HP526508   3.341   4.397   4.920 -1.6548 -2.3257 -0.0982
17568THY    HP626509   3.379   4.296   4.787  1.1523 -0.2430  1.1514
17568THY    HP726510   3.515   4.356   4.893 -0.2572 -4.8644  0.7917
17568THY    CA326511   3.155   4.191   4.958 -0.3260  0.2319 -0.5033
17568THY    HA326512   3.144   4.294   4.926 -0.2679  2.1303  0.1150
17568THY    CA426513   3.031   4.118   4.954  0.1228 -0.0815 -0.1981
17568THY    HA426514   2.940   4.163   4.917  0.2011  0.0959  0.1127
17568THY    CA526515   3.029   3.983   4.992 -0.4698 -0.6826 -0.0683
17568THY    CM126516   2.897   3.902   5.006 -0.1459 -0.0246  0.2356
17568THY    HM126517   2.865   3.893   5.110  1.8070  0.5980  0.1117
17568THY    HM226518   2.922   3.803   4.966 -0.5785  1.2288 -0.3949
17568THY    HM326519   2.817   3.954   4.953 -0.0891  1.0952  1.5078
17568THY    CA626520   3.152   3.925   5.036  0.0487 -0.3711  0.0691
17568THY    HA626521   3.147   3.821   5.070  1.1697 -0.6545 -0.0858
17569THY      O26522   8.804   9.387   6.010 -0.2748 -0.2245  0.3818
17569THY     HO26523   8.748   9.371   6.088 -1.1281 -0.7859  0.6220
17569THY    CA126524   8.819   9.270   5.949  0.3242 -0.5060 -0.1694
17569THY    CA226525   8.842   9.264   5.813 -0.5877  0.4131 -0.1943
17569THY    CP126526   8.873   9.388   5.715 -0.0642 -0.2265 -0.5313
17569THY    HP126527   8.863   9.478   5.776 -2.1304 -1.8689  0.4171
17569THY    CP226528   8.761   9.397   5.610  0.4550  0.1813  0.2149
17569THY    HP226529   8.757   9.499   5.571 -1.0766  1.1276  0.5472
17569THY    HP326530   8.666   9.378   5.660 -0.3814 -1.3630  0.2338
17569THY    HP426531   8.774   9.320   5.533 -0.5480 -0.7588  0.9498
17569THY    CP326532   9.016   9.384   5.654 -0.2514  0.4820 -0.1492
17569THY    HP526533   9.092   9.407   5.729 -0.6995  0.3688  1.8467
17569THY    HP626534   9.024   9.475   5.593 -2.9777  1.1024  0.5829
17569THY    HP726535   9.049   9.295   5.599 -1.1744 -1.6258  0.7501
17569THY    CA326536   8.837   9.133   5.745  0.0037 -0.6259 -0.5026
17569THY    HA326537   8.847   9.118   5.638 -1.0543 -0.8095  0.0403
17569THY    CA426538   8.824   9.015   5.828  0.1692  0.0695  0.4599
17569THY    HA426539   8.815   8.913   5.793 -0.2464  0.3855  0.3822
17569THY    CA526540   8.811   9.028   5.971  0.7208  0.0219  0.3050
17569THY    CM126541   8.802   8.906   6.059 -0.4427  0.1805  0.5717
17569THY    HM126542   8.727   8.915   6.138 -1.4884 -0.6200 -0.7689
17569THY    HM226543   8.895   8.893   6.116 -0.6576  0.5700  0.7335
17569THY    HM326544   8.774   8.816   6.004 -0.4014  0.2315  0.5282
17569THY    CA626545   8.811   9.160   6.029 -0.6028 -0.1720 -0.3755
17569THY    HA626546   8.809   9.168   6.137 -1.2329 -0.1208 -1.0838
17570THY      O26547   6.166   5.515   6.771  0.2759 -0.1459  0.6906
17570THY     HO26548   6.187   5.563   6.689  3.1113  0.3112  0.4161
17570THY    CA126549   6.033   5.487   6.771 -0.0557  0.5895 -0.0419
17570THY    CA226550   5.970   5.381   6.839 -0.3116  0.5115  0.0169
17570THY    CP126551   6.060   5.290   6.919  0.3842  0.2262 -0.0399
17570THY    HP126552   6.163   5.325   6.932  0.6403 -0.3191 -0.5740
17570THY    CP226553   6.066   5.152   6.855 -0.6553 -0.7056  0.4306
17570THY    HP226554   5.966   5.107   6.851 -0.7903 -0.4787  0.7091
17570THY    HP326555   6.132   5.088   6.914 -1.2419  0.9025  1.2414
17570THY    HP426556   6.095   5.160   6.750 -0.6746 -0.7838 -0.4798
17570THY    CP326557   6.009   5.261   7.063 -0.6534 -0.6208  0.3123
17570THY    HP526558   5.926   5.190   7.073 -0.7373 -1.5386  0.2702
17570THY    HP626559   5.975   5.354   7.110  1.4040  2.5197 -0.3602
17570THY    HP726560   6.091   5.216   7.121  0.3014  0.3280  3.0893
17570THY    CA326561   5.827   5.371   6.847  0.0830  0.6994  0.2890
17570THY    HA326562   5.778   5.289   6.899 -0.8974 -0.0884  0.3520
17570THY    CA426563   5.753   5.480   6.800  0.8737 -0.0738  0.3687
17570THY    HA426564   5.645   5.480   6.810  0.5657 -2.2437  2.9116
17570THY    CA526565   5.817   5.582   6.730 -0.1045  0.1249 -0.0654
17570THY    CM126566   5.746   5.695   6.662  0.3848 -0.0182 -0.5012
17570THY    HM126567   5.643   5.673   6.631  0.9131 -3.2684  1.0288
17570THY    HM226568   5.807   5.743   6.585  2.0983  2.9813  2.5920
17570THY    HM326569   5.729   5.766   6.744 -0.7692 -1.1921  0.6264
17570THY    CA626570   5.954   5.583   6.712 -0.4767 -0.0631 -0.4075
17570THY    HA626571   6.002   5.670   6.668  1.6853 -2.2024 -2.5318
17571THY      O26572   5.305   1.666   5.657 -0.0298  0.0172 -0.5123
17571THY     HO26573   5.212   1.678   5.685 -0.0778 -0.3585  0.0282
17571THY    CA126574   5.296   1.569   5.563  0.1230  0.5586 -0.9401
17571THY    CA226575   5.403   1.522   5.489 -0.3471 -0.3846  0.4450
17571THY    CP126576   5.545   1.563   5.522 -0.3114  0.6481  0.0575
17571THY    HP126577   5.547   1.642   5.599  1.7161  0.4461  0.2637
17571THY    CP226578   5.619   1.627   5.405 -0.5763  0.5796  0.1988
17571THY    HP226579   5.714   1.668   5.442  1.6188 -0.7408 -3.2557
17571THY    HP326580   5.567   1.705   5.348 -0.5714  0.6970  0.2892
17571THY    HP426581   5.665   1.549   5.343  1.7808  2.8877 -0.4159
17571THY    CP326582   5.627   1.450   5.589 -0.8322 -0.3883  0.3106
17571THY    HP526583   5.697   1.399   5.522 -0.6250 -0.1463  0.2769
17571THY    HP626584   5.569   1.377   5.645  2.1440  0.4500 -1.5604
17571THY    HP726585   5.704   1.494   5.653 -0.5626 -0.8825  0.5708
17571THY    CA326586   5.391   1.425   5.384 -0.6350 -0.1575 -0.1226
17571THY    HA326587   5.477   1.400   5.322 -0.8419 -0.3337 -0.3881
17571THY    CA426588   5.260   1.384   5.354 -0.1066  0.5948  0.1782
17571THY    HA426589   5.238   1.305   5.283  0.8785 -0.7154  1.0343
17571THY    CA526590   5.152   1.423   5.434 -0.3270 -0.6924 -0.0491
17571THY    CM126591   5.009   1.362   5.421  0.0052 -0.5853 -0.0630
17571THY    HM126592   4.935   1.440   5.444  1.7424  0.6333  1.3336
17571THY    HM226593   5.010   1.271   5.481 -0.2775  0.4463  0.5953
17571THY    HM326594   4.987   1.342   5.316 -1.5939 -0.4516  0.7832
17571THY    CA626595   5.167   1.524   5.529  0.5217 -0.4928 -0.7876
17571THY    HA626596   5.080   1.551   5.589  1.9622  0.3058  2.5634
17572THY      O26597   1.070   2.361   5.039 -0.2986 -0.0920 -0.1712
17572THY     HO26598   1.025   2.275   5.037 -0.2069 -3.0136 -0.2557
17572THY    CA126599   0.973   2.446   5.000 -0.4244  0.2885 -0.4190
17572THY    CA226600   0.999   2.567   4.938  0.1132 -0.4692 -1.2586
17572THY    CP126601   1.143   2.620   4.923  0.0989 -0.0634  0.4668
17572THY    HP126602   1.216   2.544   4.954 -1.4172  1.5269 -0.4233
17572THY    CP226603   1.165   2.760   4.984 -0.0106 -0.5160  0.4102
17572THY    HP226604   1.121   2.839   4.922  1.2164 -2.2128 -0.1805
17572THY    HP326605   1.271   2.778   5.007 -0.5853  1.9341  1.0415
17572THY    HP426606   1.120   2.752   5.084  1.3242  0.1742  1.1750
17572THY    CP326607   1.172   2.645   4.776 -0.2210  0.7473 -0.1335
17572THY    HP526608   1.272   2.689   4.765 -0.6564 -1.5761  0.4528
17572THY    HP626609   1.090   2.704   4.732 -2.9954  2.3418 -2.5462
17572THY    HP726610   1.168   2.555   4.714 -1.9293 -1.1562  1.1442
17572THY    CA326611   0.894   2.648   4.905 -0.0013  0.0388 -0.7137
17572THY    HA326612   0.905   2.744   4.855 -3.6686 -1.2872 -0.8459
17572THY    CA426613   0.761   2.615   4.948 -0.1306  0.0986 -0.1287
17572THY    HA426614   0.686   2.689   4.923 -0.3611 -0.7374 -0.6361
17572THY    CA526615   0.731   2.494   5.018 -0.1334  0.4288 -0.4238
17572THY    CM126616   0.592   2.450   5.065 -0.5700 -0.1465  0.5378
17572THY    HM126617   0.565   2.492   5.163 -0.1728 -1.1573  3.3260
17572THY    HM226618   0.598   2.341   5.073  0.5434  2.9778  0.7207
17572THY    HM326619   0.520   2.490   4.993 -0.6140  0.9334  2.5436
17572THY    CA626620   0.844   2.410   5.035  0.1769  0.8375  0.0164
17572THY    HA626621   0.826   2.318   5.089 -0.4259 -1.4653 -1.2976
17573THY      O26622   6.290   0.591   4.668 -0.2347 -0.0702 -0.2368
17573THY     HO26623   6.237   0.517   4.634  0.0070 -0.1306 -0.3833
17573THY    CA126624   6.234   0.707   4.626 -0.0926 -0.7179 -0.0904
17573THY    CA226625   6.301   0.826   4.633 -0.8285 -0.3067  0.3511
17573THY    CP126626   6.433   0.838   4.701  0.1721 -0.6020  0.5269
17573THY    HP126627   6.464   0.743   4.746 -0.7627  0.8732  0.8882
17573THY    CP226628   6.434   0.953   4.805  0.0735 -0.0149 -0.0188
17573THY    HP226629   6.377   0.924   4.895  1.5792  1.1451  0.4781
17573THY    HP326630   6.399   1.055   4.782  1.7782  1.3815  0.9463
17573THY    HP426631   6.537   0.967   4.840 -0.6238  2.1073  0.3334
17573THY    CP326632   6.537   0.871   4.598  0.4998 -0.5349 -0.2573
17573THY    HP526633   6.632   0.898   4.644 -0.6339  0.8828  1.5486
17573THY    HP626634   6.504   0.958   4.539 -3.0750  1.2910 -0.1833
17573THY    HP726635   6.544   0.790   4.524 -2.1426 -1.1613 -0.0020
17573THY    CA326636   6.233   0.940   4.597  0.4433  0.2732  0.9383
17573THY    HA326637   6.284   1.036   4.591  1.1396  0.0801  0.5569
17573THY    CA426638   6.099   0.936   4.557  0.4679  0.1474 -0.7258
17573THY    HA426639   6.040   1.025   4.540 -0.4419 -2.3301 -1.7060
17573THY    CA526640   6.029   0.816   4.556 -0.2496 -0.2667  0.2831
17573THY    CM126641   5.882   0.810   4.517  0.0724  0.0751  0.3725
17573THY    HM126642   5.877   0.858   4.418  2.1013 -0.2923 -0.0929
17573THY    HM226643   5.820   0.864   4.589  1.0522 -0.7779  2.7616
17573THY    HM326644   5.847   0.706   4.515 -0.0777  1.7061  0.3746
17573THY    CA626645   6.105   0.701   4.583 -0.0587 -0.2716  0.3413
17573THY    HA626646   6.061   0.603   4.572  1.1574  1.0454 -0.3897
17574THY      O26647   2.875   6.425   5.512  0.1275 -0.5499  0.2080
17574THY     HO26648   2.943   6.429   5.443  0.7273  0.0549  0.7474
17574THY    CA126649   2.783   6.516   5.498 -0.6556 -0.0067 -0.2584
17574THY    CA226650   2.679   6.530   5.585 -0.3080  0.2560  0.4604
17574THY    CP126651   2.661   6.429   5.693 -0.3012  0.0023 -0.0318
17574THY    HP126652   2.760   6.417   5.739  0.5685 -1.6792  0.4568
17574THY    CP226653   2.617   6.293   5.635  0.0942 -0.1615  0.0236
17574THY    HP226654   2.632   6.207   5.702 -0.7904  0.5693  0.4288
17574THY    HP326655   2.668   6.270   5.541 -1.1469 -0.7589 -0.3560
17574THY    HP426656   2.511   6.285   5.610 -0.3503  1.5815 -0.0907
17574THY    CP326657   2.564   6.465   5.806  0.3821 -0.0741 -0.4057
17574THY    HP526658   2.602   6.548   5.866  3.7295 -0.2285 -1.6576
17574THY    HP626659   2.545   6.381   5.875 -6.3225 -1.5745 -0.6422
17574THY    HP726660   2.459   6.479   5.778 -0.5078  2.1508 -1.9325
17574THY    CA326661   2.586   6.639   5.565  0.0055 -0.0089 -0.0727
17574THY    HA326662   2.495   6.643   5.623  0.6822  1.0422  0.9994
17574THY    CA426663   2.610   6.732   5.464  0.2097  1.1060  0.1799
17574THY    HA426664   2.532   6.807   5.450 -0.0573  1.5593 -0.0040
17574THY    CA526665   2.716   6.725   5.383 -0.4792 -0.1157 -0.3150
17574THY    CM126666   2.740   6.829   5.279 -0.3792  0.3592 -0.2365
17574THY    HM126667   2.649   6.856   5.225 -1.4137  1.0992 -2.0813
17574THY    HM226668   2.805   6.784   5.203  1.9972  1.4262  1.1912
17574THY    HM326669   2.801   6.913   5.315  1.0235 -2.3577  0.0138
17574THY    CA626670   2.810   6.617   5.403  0.6719 -0.0342 -0.2374
17574THY    HA626671   2.898   6.611   5.341 -0.1153 -1.0640 -1.7931
17575THY      O26672   2.494   4.440   3.037  0.2521  0.0749  0.4111
17575THY     HO26673   2.467   4.485   3.119  0.8018  0.9627 -0.8516
17575THY    CA126674   2.573   4.536   2.983 -0.3960  0.2412 -0.2749
17575THY    CA226675   2.603   4.552   2.846 -0.5707 -0.4997  0.1464
17575THY    CP126676   2.537   4.458   2.741 -0.6001  0.4718  0.6530
17575THY    HP126677   2.448   4.406   2.778 -0.4141  0.1259  0.0835
17575THY    CP226678   2.646   4.348   2.701  0.3114  0.1959 -0.4609
17575THY    HP226679   2.732   4.401   2.660 -0.1552  1.2439  1.1982
17575THY    HP326680   2.613   4.277   2.624  0.3540 -1.0084  0.7822
17575THY    HP426681   2.668   4.292   2.793  0.5554  1.4153  1.5385
17575THY    CP326682   2.501   4.541   2.614 -0.6829  1.2990  1.0979
17575THY    HP526683   2.434   4.620   2.650 -1.2571  0.7183  0.8814
17575THY    HP626684   2.442   4.489   2.538 -1.0969  3.0951 -1.1717
17575THY    HP726685   2.590   4.588   2.570  0.3791  2.8633  0.6402
17575THY    CA326686   2.713   4.628   2.809  0.3161  0.2717 -0.6973
17575THY    HA326687   2.747   4.620   2.706  0.1952  0.3027 -1.7060
17575THY    CA426688   2.772   4.720   2.903 -0.8526  0.5394  0.2020
17575THY    HA426689   2.851   4.786   2.867  0.6520  0.4884 -1.5316
17575THY    CA526690   2.726   4.725   3.034  0.7502  0.2620 -0.2069
17575THY    CM126691   2.779   4.819   3.135  0.2939 -0.1135 -0.3744
17575THY    HM126692   2.817   4.778   3.229 -0.6562 -0.6753 -2.6891
17575THY    HM226693   2.710   4.900   3.160  1.7396 -0.0143  0.8797
17575THY    HM326694   2.856   4.885   3.092 -0.8313  2.5315  2.9300
17575THY    CA626695   2.624   4.628   3.074 -0.1312  0.2120 -1.2108
17575THY    HA626696   2.610   4.624   3.181  0.6547  0.3543 -0.4238
17576THY      O26697   1.499   9.426   4.760 -0.4131 -0.5692  0.0505
17576THY     HO26698   1.486   9.515   4.797 -0.5221 -2.6760  0.9627
17576THY    CA126699   1.596   9.360   4.833  0.1340  0.6115 -0.1994
17576THY    CA226700   1.576   9.236   4.886  0.1111  0.3947  0.4320
17576THY    CP126701   1.439   9.165   4.872  0.2319 -0.5283 -0.2949
17576THY    HP126702   1.372   9.208   4.797  0.4904 -1.0109 -0.7245
17576THY    CP226703   1.360   9.180   5.004  0.1824  0.4022  0.4847
17576THY    HP226704   1.278   9.107   5.010 -0.8272 -0.1700  1.5186
17576THY    HP326705   1.317   9.281   4.994  0.1596 -1.7710  0.3055
17576THY    HP426706   1.429   9.172   5.088 -0.8764  1.1448 -1.4533
17576THY    CP326707   1.454   9.017   4.837 -0.3823  0.5325  0.0160
17576THY    HP526708   1.521   8.964   4.906  0.4877  0.7521  1.3599
17576THY    HP626709   1.492   8.999   4.736 -0.5390  0.1247  1.7683
17576THY    HP726710   1.352   8.979   4.851 -0.7212  1.0294  1.0697
17576THY    CA326711   1.681   9.174   4.969  0.6115  0.3386  0.6819
17576THY    HA326712   1.655   9.078   5.012  1.2520 -1.9695 -0.6119
17576THY    CA426713   1.798   9.239   4.987  0.7260 -1.2429 -0.0184
17576THY    HA426714   1.877   9.202   5.052  0.6441  0.2691  2.2319
17576THY    CA526715   1.821   9.358   4.921  0.1072 -0.2240 -0.9348
17576THY    CM126716   1.958   9.420   4.931  0.4310  0.0191 -0.3697
17576THY    HM126717   1.969   9.525   4.903  2.2598 -2.3177 -1.1152
17576THY    HM226718   2.026   9.370   4.862  0.5848 -0.4088  0.4258
17576THY    HM326719   2.005   9.412   5.030 -0.9383  0.6042 -1.8476
17576THY    CA626720   1.718   9.429   4.859  0.4651 -0.0559  0.3152
17576THY    HA626721   1.733   9.522   4.805  0.2315 -2.2237 -0.8327
17577THY      O26722   6.243   9.339   5.894 -0.1235  0.0053 -0.9029
17577THY     HO26723   6.223   9.291   5.812  1.9125 -2.0575  1.4401
17577THY    CA126724   6.311   9.253   5.970 -0.2776 -0.0193  0.5343
17577THY    CA226725   6.319   9.250   6.112 -0.4273  0.2445  0.0677
17577THY    CP126726   6.226   9.342   6.187  0.2923 -0.1984  0.0892
17577THY    HP126727   6.149   9.382   6.120 -0.5970  1.1986  0.8443
17577THY    CP226728   6.298   9.463   6.240 -0.5670 -0.6025 -0.2126
17577THY    HP226729   6.232   9.550   6.245 -0.7068  0.7665 -0.3772
17577THY    HP326730   6.388   9.488   6.182 -1.1019 -0.7326  1.6049
17577THY    HP426731   6.348   9.445   6.336 -1.0834 -0.3019 -0.0535
17577THY    CP326732   6.172   9.284   6.325 -0.2977  0.1678 -0.1381
17577THY    HP526733   6.111   9.362   6.374  0.3001  0.4413  0.1613
17577THY    HP626734   6.245   9.256   6.401 -0.0326 -0.7395 -2.0419
17577THY    HP726735   6.110   9.196   6.307 -0.1494 -0.7713 -0.0634
17577THY    CA326736   6.406   9.160   6.173  0.0831 -0.1918 -0.2678
17577THY    HA326737   6.415   9.147   6.280 -2.1235 -0.2140 -2.7921
17577THY    CA426738   6.495   9.084   6.097  0.2386  0.5901 -0.5835
17577THY    HA426739   6.572   9.027   6.147  1.8224  1.4198  2.1113
17577THY    CA526740   6.498   9.098   5.956  0.6655 -0.6423 -0.9738
17577THY    CM126741   6.594   9.031   5.874  0.6128 -0.0364  0.2202
17577THY    HM126742   6.605   9.071   5.773 -1.2976 -0.8617 -1.1405
17577THY    HM226743   6.564   8.926   5.865  0.0372  0.2650  0.3545
17577THY    HM326744   6.688   9.041   5.929  1.7525 -1.5289 -1.5811
17577THY    CA626745   6.400   9.173   5.890  0.3584 -0.2425 -0.2427
17577THY    HA626746   6.394   9.175   5.782 -1.8447 -0.1984 -1.1118
17578THY      O26747   8.204   4.512   2.719 -0.2421  0.6364 -0.3210
17578THY     HO26748   8.129   4.502   2.658  1.0763 -0.7006 -3.2227
17578THY    CA126749   8.209   4.407   2.801  0.0655 -0.1536 -0.1166
17578THY    CA226750   8.319   4.389   2.885  0.3045 -0.6090  0.2165
17578THY    CP126751   8.423   4.495   2.900  0.4675  0.1099  0.5409
17578THY    HP126752   8.420   4.569   2.819 -0.1017 -1.8767 -1.5605
17578THY    CP226753   8.561   4.432   2.917  0.0521  0.2764 -0.0210
17578THY    HP226754   8.631   4.516   2.910  0.6715  2.4959 -0.2829
17578THY    HP326755   8.587   4.359   2.841 -0.9799  0.9310 -1.1062
17578THY    HP426756   8.580   4.385   3.014 -0.2065  0.4191  0.1622
17578THY    CP326757   8.402   4.582   3.026 -0.0899 -0.5171 -0.0157
17578THY    HP526758   8.304   4.631   3.025  0.2719 -0.7239  0.7179
17578THY    HP626759   8.486   4.653   3.031  0.6604 -1.3089 -0.8137
17578THY    HP726760   8.417   4.522   3.116  1.9773 -1.1575 -0.5592
17578THY    CA326761   8.329   4.280   2.970 -0.4850 -0.2447  0.8549
17578THY    HA326762   8.412   4.273   3.040  0.7542 -1.6505  0.8866
17578THY    CA426763   8.233   4.179   2.962  0.2892  0.3031 -0.5193
17578THY    HA426764   8.250   4.085   3.014  0.2093  0.6719 -0.3327
17578THY    CA526765   8.138   4.188   2.869  0.3631 -0.0495  0.7614
17578THY    CM126766   8.036   4.079   2.863 -0.1530 -0.2292 -0.6669
17578THY    HM126767   8.056   4.005   2.784 -0.7452 -2.0431  1.0152
17578THY    HM226768   7.940   4.130   2.853  1.2179 -1.8826  1.8251
17578THY    HM326769   8.043   4.024   2.958  0.1938  1.6896  2.4422
17578THY    CA626770   8.120   4.298   2.794  0.1499  0.1593 -0.2706
17578THY    HA626771   8.032   4.311   2.732 -1.9312  2.8157 -0.8292
17579THY      O26772   7.913   2.623   7.974 -0.0168 -0.4904  0.8663
17579THY     HO26773   8.000   2.628   7.931  0.0242 -0.5099  0.1360
17579THY    CA126774   7.890   2.488   7.987  0.2499  0.5444 -0.3487
17579THY    CA226775   7.760   2.431   7.982 -0.8009  0.7950 -0.1655
17579THY    CP126776   7.640   2.522   7.981 -0.2308 -0.6836  0.4807
17579THY    HP126777   7.662   2.604   8.050  2.9011  0.2680 -1.0094
17579THY    CP226778   7.508   2.459   8.022  0.7784  0.2223 -0.3429
17579THY    HP226779   7.510   2.421   8.124 -1.3154  0.8071  0.9498
17579THY    HP326780   7.464   2.387   7.952  1.0576  0.1182 -0.4137
17579THY    HP426781   7.438   2.543   8.033 -0.8692  0.5449 -1.7093
17579THY    CP326782   7.633   2.589   7.849  1.0614 -0.7572  0.0722
17579THY    HP526783   7.732   2.616   7.810  0.9947  0.3900  2.0984
17579THY    HP626784   7.565   2.675   7.846 -0.4120 -1.1815 -1.0567
17579THY    HP726785   7.578   2.524   7.779  1.2395  0.2962 -1.2432
17579THY    CA326786   7.742   2.289   7.974  0.1907  0.1023  0.4145
17579THY    HA326787   7.648   2.241   7.953 -0.4222 -0.1947  1.6915
17579THY    CA426788   7.851   2.205   7.968  0.0039 -0.3609 -0.9621
17579THY    HA426789   7.843   2.098   7.951  0.3821 -1.9788 -0.7571
17579THY    CA526790   7.978   2.259   7.973 -0.1575 -0.1216 -0.2997
17579THY    CM126791   8.096   2.172   7.979  0.0389  0.2704 -0.5203
17579THY    HM126792   8.183   2.210   7.923 -0.2314  0.4524  0.3912
17579THY    HM226793   8.071   2.074   7.937 -1.2860  0.9850 -0.4986
17579THY    HM326794   8.129   2.165   8.083  1.0473 -0.0256 -0.4347
17579THY    CA626795   8.000   2.401   7.974  0.0718  0.6801  0.0757
17579THY    HA626796   8.104   2.433   7.969  0.3899 -1.6569 -1.1211
17580THY      O26797   8.006   7.887   2.344 -0.6203 -0.3635 -0.1180
17580THY     HO26798   8.045   7.967   2.305  0.2159 -0.6439 -0.6439
17580THY    CA126799   7.869   7.903   2.342  0.2103 -0.5304  0.0668
17580THY    CA226800   7.773   7.804   2.379  0.0167  0.0125 -0.1968
17580THY    CP126801   7.815   7.664   2.413  0.7138 -0.1475 -0.4103
17580THY    HP126802   7.914   7.655   2.458  0.6861 -0.1910 -0.9222
17580THY    CP226803   7.824   7.577   2.290  0.5027  0.5346  0.1221
17580THY    HP226804   7.898   7.496   2.287  0.4300 -1.4288  0.0867
17580THY    HP326805   7.860   7.641   2.209  0.3459  0.3627 -0.0022
17580THY    HP426806   7.727   7.536   2.258  1.0797 -0.7514 -0.2837
17580THY    CP326807   7.714   7.588   2.510 -0.4480 -0.5074  0.1136
17580THY    HP526808   7.616   7.566   2.466 -1.2514  0.0988  2.2446
17580THY    HP626809   7.701   7.648   2.601  2.7293  0.9592 -1.1372
17580THY    HP726810   7.767   7.496   2.539  2.0303 -2.0739  0.9561
17580THY    CA326811   7.634   7.834   2.373 -0.3810 -0.2302  0.0704
17580THY    HA326812   7.551   7.765   2.387 -0.0335 -0.6028 -0.4344
17580THY    CA426813   7.595   7.962   2.330  0.6926 -0.2656  0.4306
17580THY    HA426814   7.488   7.981   2.336  0.0299 -2.6976 -1.8507
17580THY    CA526815   7.691   8.059   2.294  0.0564 -0.2316  0.2938
17580THY    CM126816   7.652   8.196   2.251  0.2205  0.4437 -0.8416
17580THY    HM126817   7.719   8.246   2.180 -0.8725 -0.6505 -0.8746
17580THY    HM226818   7.640   8.261   2.339  0.9649 -1.4606  2.0658
17580THY    HM326819   7.559   8.199   2.192  0.8736 -0.6607  2.9694
17580THY    CA626820   7.828   8.022   2.292  1.1332 -0.5000 -1.0336
17580THY    HA626821   7.899   8.100   2.269  0.6392 -1.4063 -0.8448
17581THY      O26822   0.544   5.565   2.549  0.3361  0.1289  0.3017
17581THY     HO26823   0.505   5.654   2.554 -0.8745 -1.1199 -0.1313
17581THY    CA126824   0.457   5.476   2.615 -0.5901 -1.0378 -0.9707
17581THY    CA226825   0.495   5.346   2.640 -0.0510  0.1944  0.3612
17581THY    CP126826   0.640   5.295   2.622 -0.1986 -0.5197  0.2362
17581THY    HP126827   0.709   5.366   2.574  0.8454 -0.3018 -0.6139
17581THY    CP226828   0.648   5.179   2.522 -0.3198  0.1024 -0.4241
17581THY    HP226829   0.603   5.086   2.558 -1.0155  0.2670 -0.0318
17581THY    HP326830   0.754   5.157   2.508 -0.1684 -0.2449  0.5013
17581THY    HP426831   0.601   5.207   2.427 -1.4417  1.0183  0.9036
17581THY    CP326832   0.703   5.251   2.759  0.5627  0.1303 -0.8759
17581THY    HP526833   0.633   5.183   2.809 -1.2531 -2.0652 -0.7305
17581THY    HP626834   0.739   5.335   2.820  1.8125  0.4309 -1.6063
17581THY    HP726835   0.787   5.184   2.739  0.0475 -0.5460 -1.3290
17581THY    CA326836   0.398   5.249   2.686 -0.2441  0.0830  0.4239
17581THY    HA326837   0.435   5.156   2.729 -1.6834  1.5345  0.4780
17581THY    CA426838   0.265   5.293   2.707  0.1712  0.7651  0.2265
17581THY    HA426839   0.198   5.221   2.753 -0.2063  0.0744  0.1314
17581THY    CA526840   0.234   5.428   2.687  0.2933  0.5413 -0.4568
17581THY    CM126841   0.094   5.467   2.719 -0.0952 -0.2861  0.3258
17581THY    HM126842   0.017   5.428   2.651 -0.7891 -0.7327  2.3339
17581THY    HM226843   0.080   5.576   2.713 -1.3155 -0.5427  0.1674
17581THY    HM326844   0.056   5.428   2.814  2.3548  0.3680 -0.6485
17581THY    CA626845   0.324   5.521   2.639 -0.9203  0.0127  0.1723
17581THY    HA626846   0.292   5.621   2.613  2.3272 -3.1218  0.6167
17582THY      O26847   8.442   2.896   3.534 -0.0080  0.7853  0.4332
17582THY     HO26848   8.496   2.875   3.456 -0.4129  0.5954  0.0856
17582THY    CA126849   8.389   3.010   3.485  0.6199  0.1696 -0.3420
17582THY    CA226850   8.299   3.083   3.562  0.7756  0.1347  0.3779
17582THY    CP126851   8.254   3.042   3.699 -0.2864  0.1615  0.0675
17582THY    HP126852   8.255   2.933   3.698  0.3721 -0.6437  0.0707
17582THY    CP226853   8.115   3.081   3.733  0.0224 -0.7755 -0.1842
17582THY    HP226854   8.120   3.183   3.773 -1.3816  1.1865 -0.8202
17582THY    HP326855   8.078   3.023   3.818  1.7183  0.8714  1.0360
17582THY    HP426856   8.044   3.072   3.649  0.4594 -1.1893  0.2106
17582THY    CP326857   8.353   3.108   3.800  0.7634 -0.7763  0.3685
17582THY    HP526858   8.460   3.096   3.777  1.7818  3.0222  1.0093
17582THY    HP626859   8.324   3.065   3.897 -2.4995 -1.4898  0.7083
17582THY    HP726860   8.330   3.215   3.796 -1.6447 -2.0312 -0.1365
17582THY    CA326861   8.258   3.204   3.514  0.1788 -0.0262 -0.0487
17582THY    HA326862   8.191   3.276   3.561  1.2086  0.1211  0.8363
17582THY    CA426863   8.305   3.250   3.393  0.5899  0.6645  0.8792
17582THY    HA426864   8.268   3.345   3.354 -0.0085 -0.1916  0.3129
17582THY    CA526865   8.385   3.173   3.310  0.1342  0.0291 -0.2489
17582THY    CM126866   8.420   3.233   3.174 -0.2695  0.3614 -0.5042
17582THY    HM126867   8.326   3.256   3.123 -0.0147  0.0544 -0.1411
17582THY    HM226868   8.481   3.160   3.120 -1.1733 -1.3167 -0.0609
17582THY    HM326869   8.477   3.326   3.183 -2.1447 -0.0000  0.7248
17582THY    CA626870   8.432   3.045   3.357 -0.5852 -0.2741  0.1011
17582THY    HA626871   8.491   2.976   3.298 -0.5294 -0.6586  0.4687
17583THY      O26872   9.103   5.169   4.959  0.2977 -0.3230 -0.1540
17583THY     HO26873   9.021   5.161   4.907  0.7099 -0.8638 -0.9842
17583THY    CA126874   9.145   5.042   4.968  1.0448 -0.3731 -0.0766
17583THY    CA226875   9.271   5.012   5.022  0.3169 -1.2680 -0.4875
17583THY    CP126876   9.337   5.119   5.112  0.9529  0.1872  0.1283
17583THY    HP126877   9.271   5.203   5.137 -0.0689 -0.1470 -0.5634
17583THY    CP226878   9.462   5.171   5.035  0.0350  0.4104  0.2486
17583THY    HP226879   9.509   5.240   5.106  1.1115  1.3192 -1.3436
17583THY    HP326880   9.443   5.227   4.943 -0.6406  1.6142  2.0911
17583THY    HP426881   9.535   5.091   5.017 -0.3831 -0.9260  0.1493
17583THY    CP326882   9.386   5.067   5.251 -0.1919  0.3459  0.1526
17583THY    HP526883   9.443   4.976   5.228 -0.5643 -2.0587  0.4434
17583THY    HP626884   9.295   5.058   5.310  0.1973  0.9614  0.2366
17583THY    HP726885   9.460   5.133   5.297  0.3255  0.1017 -0.2447
17583THY    CA326886   9.323   4.882   5.005 -0.2621 -0.2424  0.2217
17583THY    HA326887   9.423   4.864   5.046  0.2968 -1.0300  1.4567
17583THY    CA426888   9.251   4.783   4.930  0.1752  0.1806 -0.0392
17583THY    HA426889   9.296   4.685   4.917 -0.4047  1.3439 -0.4726
17583THY    CA526890   9.117   4.809   4.895 -0.3702  0.6162 -0.2754
17583THY    CM126891   9.041   4.704   4.813 -0.0999  0.2170 -0.5625
17583THY    HM126892   8.933   4.707   4.831 -0.1821 -0.2668 -0.6357
17583THY    HM226893   9.079   4.605   4.843  1.2128 -1.4217 -0.6022
17583THY    HM326894   9.067   4.720   4.708  0.8502  0.6796  1.2427
17583THY    CA626895   9.068   4.943   4.905 -0.2425  0.1122  0.2652
17583THY    HA626896   8.979   4.962   4.847  0.0807  0.1253  1.9988
17584THY      O26897   1.892   2.338   6.930 -0.0449  0.0194 -0.0219
17584THY     HO26898   1.867   2.370   6.842  0.3213 -0.3588 -0.7565
17584THY    CA126899   1.891   2.203   6.918  0.2542 -0.0346  0.1447
17584THY    CA226900   1.927   2.114   7.024  0.2582  0.1360 -0.8537
17584THY    CP126901   1.960   2.169   7.167  0.2541 -0.3559 -0.3705
17584THY    HP126902   1.942   2.277   7.172 -2.9088 -0.3451 -0.8116
17584THY    CP226903   2.106   2.147   7.201  0.5700 -0.0719  0.3703
17584THY    HP226904   2.180   2.162   7.121  1.1579  0.7543  2.2286
17584THY    HP326905   2.127   2.042   7.221 -1.4418 -1.2695 -0.3058
17584THY    HP426906   2.135   2.222   7.276  0.4424  0.1659  0.1818
17584THY    CP326907   1.871   2.120   7.273 -0.5237 -0.1153  0.5653
17584THY    HP526908   1.901   2.015   7.286  1.2687 -1.6357  0.8399
17584THY    HP626909   1.767   2.138   7.245 -0.9143 -0.0941 -1.3783
17584THY    HP726910   1.903   2.178   7.360 -0.6516 -0.1774  0.7275
17584THY    CA326911   1.929   1.978   6.998  0.5140  0.2067 -0.1915
17584THY    HA326912   1.957   1.915   7.082  2.7543  1.4280  2.2568
17584THY    CA426913   1.873   1.928   6.874 -0.8819  0.0239  0.7406
17584THY    HA426914   1.864   1.821   6.858  1.3353  0.6236  0.4339
17584THY    CA526915   1.833   2.020   6.767  0.1507 -0.6270  0.6061
17584THY    CM126916   1.782   1.973   6.633  0.2532 -0.7604 -0.5603
17584THY    HM126917   1.693   1.909   6.645  1.0384  0.2431 -1.5048
17584THY    HM226918   1.848   1.920   6.563 -0.9277 -3.7475  1.6358
17584THY    HM326919   1.736   2.056   6.579  0.3586  1.5361  1.0680
17584THY    CA626920   1.850   2.157   6.794 -0.3020  0.1769 -0.3661
17584THY    HA626921   1.823   2.229   6.717 -1.2903  0.3863 -0.5072
17585THY      O26922   4.914   6.331   2.042 -0.1383  0.0951 -0.4932
17585THY     HO26923   4.981   6.262   2.060  1.7817  1.4458  1.5981
17585THY    CA126924   4.789   6.284   2.066  0.3636 -0.0060 -0.2340
17585THY    CA226925   4.688   6.382   2.088 -1.0232  0.2939  0.0330
17585THY    CP126926   4.716   6.531   2.092  0.1819 -0.6776  0.0822
17585THY    HP126927   4.816   6.565   2.066  1.2109  1.8257 -0.8164
17585THY    CP226928   4.702   6.574   2.236 -0.1817  0.2078 -0.3969
17585THY    HP226929   4.789   6.533   2.289  0.2276 -0.8283 -0.9081
17585THY    HP326930   4.605   6.544   2.276 -0.6563  1.2891  2.2887
17585THY    HP426931   4.705   6.683   2.251  0.9995 -0.1677 -0.3515
17585THY    CP326932   4.624   6.617   2.002  0.2798 -0.5139 -0.5565
17585THY    HP526933   4.638   6.724   2.016 -0.3883 -2.0887 -0.2253
17585THY    HP626934   4.516   6.606   2.021  0.3377  1.7530  1.8373
17585THY    HP726935   4.643   6.605   1.894 -1.1797 -0.7910 -0.6265
17585THY    CA326936   4.558   6.339   2.117  0.1567  0.1765  0.2410
17585THY    HA326937   4.474   6.407   2.129 -1.0615 -0.6166 -1.0569
17585THY    CA426938   4.531   6.202   2.116 -0.0115  0.0293 -0.2354
17585THY    HA426939   4.429   6.168   2.134 -0.4958  0.1996  1.2477
17585THY    CA526940   4.633   6.110   2.104  0.6959  0.5546  0.0911
17585THY    CM126941   4.602   5.963   2.112 -0.5023 -0.9438  0.4644
17585THY    HM126942   4.527   5.936   2.037 -1.5169  0.1615  0.1158
17585THY    HM226943   4.576   5.938   2.216  0.8286 -0.8919 -0.8026
17585THY    HM326944   4.690   5.901   2.095 -1.0638  0.8222 -0.8950
17585THY    CA626945   4.762   6.153   2.072  0.0064  0.5774  0.2652
17585THY    HA626946   4.842   6.080   2.079 -0.7333  3.1584 -0.4150
17586THY      O26947   0.869   0.447   7.469 -0.6355 -0.1881 -0.1800
17586THY     HO26948   0.930   0.472   7.398 -0.1895  0.3494  0.2795
17586THY    CA126949   0.816   0.563   7.504  0.6878 -0.5536  0.5419
17586THY    CA226950   0.742   0.578   7.624 -1.2928 -0.3832 -0.2193
17586THY    CP126951   0.748   0.462   7.732 -0.3529 -0.4402 -0.5356
17586THY    HP126952   0.829   0.392   7.711  0.1991  3.5609 -1.3008
17586THY    CP226953   0.620   0.391   7.764 -0.5372  0.0459 -0.3234
17586THY    HP226954   0.569   0.367   7.670  0.6015 -0.6933  0.0807
17586THY    HP326955   0.551   0.459   7.814  1.1491  0.3389  1.2278
17586THY    HP426956   0.635   0.300   7.823  0.9005  1.1752  0.6101
17586THY    CP326957   0.797   0.540   7.859 -0.0132  0.4939  0.0839
17586THY    HP526958   0.724   0.619   7.877 -2.3477  1.1771 -2.0887
17586THY    HP626959   0.885   0.601   7.836 -0.5380 -0.8511  0.3748
17586THY    HP726960   0.805   0.475   7.947 -2.0181 -0.5908 -1.7559
17586THY    CA326961   0.677   0.702   7.646 -0.0269  0.2631  0.0881
17586THY    HA326962   0.617   0.727   7.733  0.0806  0.2370  0.4308
17586THY    CA426963   0.683   0.798   7.549  0.1328 -0.6287  0.6389
17586THY    HA426964   0.625   0.889   7.558 -1.6821 -0.2268 -0.5032
17586THY    CA526965   0.760   0.777   7.437  0.3868  0.1468  0.4265
17586THY    CM126966   0.766   0.882   7.343  0.2198  0.4385  0.1241
17586THY    HM126967   0.860   0.898   7.290 -0.5237 -0.2858  2.4521
17586THY    HM226968   0.729   0.974   7.388 -0.5565 -1.6784  0.9225
17586THY    HM326969   0.694   0.856   7.264  0.4876 -0.1966  1.2539
17586THY    CA626970   0.824   0.658   7.411 -0.2321 -0.8491  0.2330
17586THY    HA626971   0.866   0.641   7.313  0.5189 -0.5354  0.2478
17587THY      O26972   5.128   4.199   6.270  0.1812 -0.1612  0.1678
17587THY     HO26973   5.142   4.220   6.176 -0.1208 -0.1084  0.6032
17587THY    CA126974   4.992   4.177   6.282 -0.6357 -0.4387  0.5848
17587THY    CA226975   4.938   4.099   6.388  0.2313  0.4190 -0.5779
17587THY    CP126976   5.034   4.054   6.491 -0.9565  0.2843  0.7659
17587THY    HP126977   5.126   4.114   6.491  0.5568 -1.3736 -1.4019
17587THY    CP226978   5.085   3.913   6.450  0.7623  0.6285  0.3166
17587THY    HP226979   5.167   3.881   6.515  0.0106  0.6407 -1.7911
17587THY    HP326980   5.131   3.924   6.351  1.3191  0.8776  0.2520
17587THY    HP426981   5.008   3.835   6.444  0.1748  2.1818  0.7426
17587THY    CP326982   4.985   4.058   6.633  0.5611  0.0930  0.4692
17587THY    HP526983   4.953   4.159   6.659 -4.3568 -1.0144 -0.5570
17587THY    HP626984   5.058   4.032   6.711  0.8402  0.1450  1.3931
17587THY    HP726985   4.897   3.994   6.644  1.1740 -0.3860 -0.4832
17587THY    CA326986   4.802   4.063   6.390  0.0583  0.6436 -0.2331
17587THY    HA326987   4.756   3.996   6.462 -1.2150  0.3828  0.3233
17587THY    CA426988   4.716   4.123   6.295 -0.0838 -0.0195  0.0002
17587THY    HA426989   4.610   4.102   6.288  0.0755 -1.6979 -0.3760
17587THY    CA526990   4.769   4.210   6.195 -0.0567  0.0961 -0.1026
17587THY    CM126991   4.672   4.263   6.095  0.4572 -0.2003  0.5892
17587THY    HM126992   4.624   4.174   6.053  0.9913 -1.9048  1.0661
17587THY    HM226993   4.714   4.319   6.010  0.3897  0.7835  2.1722
17587THY    HM326994   4.599   4.331   6.140  0.1743 -0.3804  0.4049
17587THY    CA626995   4.906   4.229   6.184  0.1399 -0.3034 -0.3298
17587THY    HA626996   4.941   4.280   6.095 -0.1864 -0.7468 -0.8670
17588THY      O26997   2.749   9.147   2.777  0.7110  0.7590  0.2932
17588THY     HO26998   2.832   9.140   2.827  1.7121 -0.5444  1.9307
17588THY    CA126999   2.763   9.061   2.667 -0.3306 -0.1772 -0.0143
17588THY    CA227000   2.659   9.007   2.591 -0.6387  0.1432  0.3010
17588THY    CP127001   2.518   9.029   2.635  0.2578  0.2338  0.1042
17588THY    HP127002   2.524   9.087   2.728  2.4776  0.3476 -0.2213
17588THY    CP227003   2.449   8.896   2.665  0.4311 -0.3100  0.1552
17588THY    HP227004   2.415   8.833   2.582 -1.0528 -0.0456  0.5579
17588THY    HP327005   2.365   8.907   2.736 -0.0269  0.3749 -5.0640
17588THY    HP427006   2.518   8.831   2.721  0.0412  0.1465  0.1246
17588THY    CP327007   2.436   9.113   2.533  1.3226  0.4633 -0.2150
17588THY    HP527008   2.450   9.086   2.427  1.2045  0.4868 -0.3714
17588THY    HP627009   2.470   9.215   2.551 -0.4736  2.1562  0.1459
17588THY    HP727010   2.330   9.117   2.560  1.2099  0.9414 -3.2808
17588THY    CA327011   2.687   8.918   2.481 -0.0719 -1.1506 -0.1319
17588THY    HA327012   2.604   8.879   2.423  0.3737 -0.3556 -2.4253
17588THY    CA427013   2.822   8.893   2.453 -0.3542  0.4249  0.2473
17588THY    HA427014   2.844   8.828   2.368 -1.7343 -1.5140  2.1603
17588THY    CA527015   2.930   8.942   2.535  0.0794 -1.2276  0.4258
17588THY    CM127016   3.068   8.902   2.519 -0.3714  0.0331 -0.0753
17588THY    HM127017   3.127   8.970   2.457 -0.0831  0.6731  0.2687
17588THY    HM227018   3.075   8.807   2.466 -2.0280  0.9042 -0.7334
17588THY    HM327019   3.111   8.885   2.619 -2.7122  1.0798 -0.3135
17588THY    CA627020   2.892   9.030   2.639 -0.2965 -0.2004 -0.1768
17588THY    HA627021   2.972   9.071   2.700 -1.0347  0.2151  0.6742
17589THY      O27022   6.155   1.882   4.674 -0.1229  0.1940  0.1504
17589THY     HO27023   6.210   1.803   4.688 -0.5662  0.6882 -0.0810
17589THY    CA127024   6.039   1.853   4.734  0.6229  0.4733  0.0969
17589THY    CA227025   5.922   1.918   4.683 -0.0881  0.2041 -0.0665
17589THY    CP127026   5.924   2.026   4.570  0.2253 -0.0567 -0.5764
17589THY    HP127027   6.007   2.003   4.503  1.3676  1.7366 -1.9896
17589THY    CP227028   5.930   2.169   4.625  0.1445 -0.2151 -0.1159
17589THY    HP227029   6.021   2.180   4.686 -0.6553  1.0553 -0.3945
17589THY    HP327030   5.845   2.191   4.691 -0.3124 -0.7353 -0.3158
17589THY    HP427031   5.916   2.242   4.544 -0.1891  0.9687  1.1758
17589THY    CP327032   5.796   2.012   4.481 -0.1270 -0.3622 -0.2163
17589THY    HP527033   5.820   2.059   4.385  0.1536 -0.7873 -1.2058
17589THY    HP627034   5.718   2.061   4.541 -1.9848  0.6812 -4.0737
17589THY    HP727035   5.776   1.908   4.454  3.0733  0.9230 -1.2961
17589THY    CA327036   5.804   1.881   4.748  0.1018 -0.4441  0.0565
17589THY    HA327037   5.704   1.913   4.718 -1.7045  1.7418 -2.9339
17589THY    CA427038   5.800   1.786   4.855 -0.4691 -0.1179  0.3953
17589THY    HA427039   5.712   1.758   4.912  1.3095  2.7562  0.2372
17589THY    CA527040   5.911   1.710   4.883 -0.1109  0.3295 -0.4114
17589THY    CM127041   5.906   1.599   4.985 -0.7661 -0.0069  0.1059
17589THY    HM127042   6.004   1.559   5.012  1.1165 -3.3279  2.0510
17589THY    HM227043   5.851   1.511   4.950 -1.4490  0.4415  0.3410
17589THY    HM327044   5.839   1.624   5.069 -0.7700 -0.0537  0.2545
17589THY    CA627045   6.032   1.748   4.829 -0.8231  0.2876 -0.6336
17589THY    HA627046   6.125   1.701   4.857 -0.0317 -0.1038  0.6347
17590THY      O27047   4.111   4.459   5.491 -0.0067  0.1681 -0.3504
17590THY     HO27048   4.161   4.541   5.475 -0.9704  0.1634  0.2484
17590THY    CA127049   4.028   4.489   5.595  0.5464  0.3808  0.3869
17590THY    CA227050   3.968   4.390   5.677  0.3669 -0.2058 -0.6646
17590THY    CP127051   3.985   4.239   5.649 -0.4427 -0.8190  0.2460
17590THY    HP127052   4.053   4.212   5.567 -1.9243 -1.3771 -2.0745
17590THY    CP227053   3.844   4.197   5.619 -0.1160 -0.4681 -0.6009
17590THY    HP227054   3.845   4.089   5.601 -1.3443 -2.8988 -0.2779
17590THY    HP327055   3.829   4.241   5.520 -1.1200  0.7653  2.0215
17590THY    HP427056   3.766   4.233   5.687  0.7754 -0.8435  2.2980
17590THY    CP327057   4.033   4.176   5.772 -0.2414 -1.0925  0.1659
17590THY    HP527058   4.066   4.071   5.768  0.3646  1.5344  0.1870
17590THY    HP627059   3.972   4.187   5.862  1.4871  0.0489  0.7444
17590THY    HP727060   4.117   4.233   5.812 -1.1979  2.0290 -0.4137
17590THY    CA327061   3.885   4.446   5.781 -0.5593  0.0224 -0.2140
17590THY    HA327062   3.842   4.378   5.854  0.3787 -0.3047 -1.1922
17590THY    CA427063   3.863   4.577   5.795  1.0983 -0.7791 -0.9843
17590THY    HA427064   3.802   4.617   5.876  0.6581 -1.0462 -1.1102
17590THY    CA527065   3.912   4.671   5.705 -0.3528  0.1287  0.0398
17590THY    CM127066   3.887   4.816   5.705 -0.5622 -0.0258 -0.3595
17590THY    HM127067   3.974   4.847   5.763 -0.1439 -1.3006  0.9722
17590THY    HM227068   3.791   4.833   5.756 -1.5700 -2.0810  0.5296
17590THY    HM327069   3.887   4.865   5.607  0.2299  0.3942  0.5166
17590THY    CA627070   3.999   4.626   5.609  0.8360  0.0590  0.2235
17590THY    HA627071   4.041   4.694   5.535 -0.0377 -0.0202  0.6939
17591THY      O27072   7.758   8.343   4.213 -0.6616  0.3812 -0.0019
17591THY     HO27073   7.815   8.411   4.174  1.0043  1.6848 -0.5862
17591THY    CA127074   7.782   8.334   4.347  0.0556 -0.8112 -0.2080
17591THY    CA227075   7.688   8.285   4.437  0.1420  0.2445 -0.2908
17591THY    CP127076   7.558   8.224   4.374 -0.3128 -0.0276 -0.0746
17591THY    HP127077   7.575   8.194   4.270  1.6705  0.0888  0.4981
17591THY    CP227078   7.440   8.314   4.393 -0.4666 -0.2139 -0.7282
17591THY    HP227079   7.465   8.411   4.348  2.2913  1.7480 -0.4029
17591THY    HP327080   7.418   8.325   4.500  1.0357  0.1272 -0.7859
17591THY    HP427081   7.353   8.275   4.340 -1.9134  1.4876  0.0164
17591THY    CP327082   7.535   8.090   4.437  0.1355 -0.2415  0.2675
17591THY    HP527083   7.615   8.019   4.412  0.5227 -2.2521  1.3472
17591THY    HP627084   7.437   8.046   4.414  0.4589 -2.6507  0.6708
17591THY    HP727085   7.542   8.102   4.546  1.2614 -0.4648  1.9475
17591THY    CA327086   7.704   8.311   4.574 -0.3208 -0.0238 -0.5274
17591THY    HA327087   7.630   8.280   4.648  2.0339  1.9943 -1.6922
17591THY    CA427088   7.818   8.379   4.626 -0.1877  0.5656 -0.7210
17591THY    HA427089   7.841   8.388   4.731  0.3597  0.3684  0.3545
17591THY    CA527090   7.914   8.419   4.539 -0.5698  0.3660 -0.5294
17591THY    CM127091   8.042   8.474   4.598 -0.1632 -0.4098 -0.0895
17591THY    HM127092   8.046   8.575   4.639  2.4193  0.7201 -0.5605
17591THY    HM227093   8.122   8.465   4.524  1.1124  0.7436  1.1555
17591THY    HM327094   8.073   8.418   4.688 -1.7677  0.4387  0.3193
17591THY    CA627095   7.899   8.400   4.399  0.1255 -0.0504 -0.4407
17591THY    HA627096   7.976   8.440   4.335  1.3045  0.3660 -1.9222
17592THY      O27097   8.473   8.255   5.978  1.0793  0.6672  0.1188
17592THY     HO27098   8.415   8.329   5.953 -1.7701  0.8625 -1.8667
17592THY    CA127099   8.596   8.267   5.919 -0.4337 -0.5684  0.4171
17592THY    CA227100   8.679   8.153   5.917 -0.5085  0.6033 -0.4430
17592THY    CP127101   8.645   8.029   5.990  0.5951  0.1027 -0.6607
17592THY    HP127102   8.597   8.060   6.083 -0.7807 -0.4478 -1.0778
17592THY    CP227103   8.758   7.951   6.063  0.5448  0.0292 -0.4856
17592THY    HP227104   8.719   7.874   6.130 -0.4556 -0.3445 -0.3079
17592THY    HP327105   8.817   8.023   6.121 -1.7870  2.2297 -0.2083
17592THY    HP427106   8.821   7.896   5.991  2.9363  1.6790 -0.0796
17592THY    CP327107   8.566   7.931   5.905  0.1245 -0.3316  0.7112
17592THY    HP527108   8.478   7.980   5.861  0.0437  0.4145  1.2439
17592THY    HP627109   8.526   7.842   5.955  0.1038 -1.6706 -0.0510
17592THY    HP727110   8.642   7.906   5.830  2.3097  1.3784  1.9134
17592THY    CA327111   8.809   8.165   5.843  0.2799 -0.7268  0.2236
17592THY    HA327112   8.872   8.077   5.833  0.4794  1.3046  0.0944
17592THY    CA427113   8.849   8.290   5.795 -0.1051 -0.3323  0.5287
17592THY    HA427114   8.945   8.293   5.745  0.7947  1.3162  0.1710
17592THY    CA527115   8.759   8.395   5.790 -0.1012 -0.2858 -0.1353
17592THY    CM127116   8.792   8.529   5.722  0.1896 -0.1741  0.5642
17592THY    HM127117   8.899   8.543   5.705  0.7543  1.9778 -0.6678
17592THY    HM227118   8.765   8.605   5.796 -0.4518  1.3630 -1.0886
17592THY    HM327119   8.746   8.526   5.622 -0.3802  0.1140 -0.7862
17592THY    CA627120   8.630   8.384   5.858  0.2477  0.5302 -0.0017
17592THY    HA627121   8.556   8.462   5.862 -0.7418  1.0084 -0.9400
17593THY      O27122   0.598   8.836   7.869 -0.7479  0.1056 -0.0395
17593THY     HO27123   0.613   8.922   7.911 -0.4942 -2.0415  1.0311
17593THY    CA127124   0.467   8.823   7.836 -0.6631 -0.6081 -0.3863
17593THY    CA227125   0.435   8.765   7.711  0.2318  0.5475 -0.3848
17593THY    CP127126   0.538   8.725   7.609 -1.0918  0.5099  0.0196
17593THY    HP127127   0.633   8.699   7.657  0.2336 -1.2518  1.3689
17593THY    CP227128   0.571   8.844   7.511  0.5275 -0.4233  0.0763
17593THY    HP227129   0.662   8.821   7.454 -0.1320 -1.7158  0.5887
17593THY    HP327130   0.614   8.923   7.573  4.1573 -1.3399 -0.9796
17593THY    HP427131   0.489   8.866   7.442  0.7543 -0.8752 -0.4525
17593THY    CP327132   0.497   8.603   7.526 -0.0392 -0.0251 -0.0351
17593THY    HP527133   0.409   8.609   7.460 -0.5703  0.7908  1.7032
17593THY    HP627134   0.487   8.519   7.594  0.3150 -1.6327 -1.4298
17593THY    HP727135   0.579   8.579   7.458  0.3683  0.2754  0.4848
17593THY    CA327136   0.299   8.776   7.673  0.3999  0.3139 -0.7767
17593THY    HA327137   0.280   8.748   7.570  0.9362  0.4103 -1.5558
17593THY    CA427138   0.200   8.831   7.756 -0.0086 -0.0745  0.0065
17593THY    HA427139   0.097   8.853   7.730 -0.1690  1.1552  0.8210
17593THY    CA527140   0.237   8.879   7.877  0.2399 -0.5308  0.0474
17593THY    CM127141   0.133   8.941   7.959 -0.2146 -0.1158 -0.0060
17593THY    HM127142   0.174   8.973   8.056  1.5426 -1.0930  0.8835
17593THY    HM227143   0.048   8.876   7.982 -1.7869 -0.7169  1.7324
17593THY    HM327144   0.092   9.032   7.914  2.0089  0.5226  1.4174
17593THY    CA627145   0.374   8.883   7.915  0.2582  0.1507 -0.4388
17593THY    HA627146   0.397   8.940   8.004  0.5486 -0.5122  0.5074
17594THY      O27147   1.727   0.416   5.033 -0.1524  0.1300  0.2757
17594THY     HO27148   1.705   0.466   4.953  0.9625  0.0985  0.7590
17594THY    CA127149   1.611   0.402   5.104  0.0900 -0.6085 -0.2218
17594THY    CA227150   1.608   0.305   5.212  1.1823 -0.1469 -0.0997
17594THY    CP127151   1.732   0.227   5.247 -0.5008 -0.4379 -0.2647
17594THY    HP127152   1.800   0.226   5.162  0.1010 -0.0433  1.7905
17594THY    CP227153   1.696   0.070   5.266  0.4072 -0.0652 -0.5924
17594THY    HP227154   1.624   0.035   5.192 -1.3399  1.6040 -0.6799
17594THY    HP327155   1.661   0.054   5.369  2.2930  0.4944 -1.4839
17594THY    HP427156   1.792   0.017   5.262  0.5973  0.9188 -0.3512
17594THY    CP327157   1.801   0.276   5.376 -0.3561  0.1973  0.1103
17594THY    HP527158   1.721   0.289   5.450 -1.6663 -1.3497  1.2022
17594THY    HP627159   1.858   0.367   5.355  1.9812  1.1958 -1.0415
17594THY    HP727160   1.875   0.204   5.414  0.0888 -2.2874 -0.8574
17594THY    CA327161   1.489   0.282   5.284  0.5074 -0.0700 -1.0454
17594THY    HA327162   1.485   0.213   5.367 -2.3259  0.1055 -0.7995
17594THY    CA427163   1.373   0.356   5.243 -0.5915 -0.3961  0.0292
17594THY    HA427164   1.281   0.340   5.297 -0.7870 -0.6646  0.2585
17594THY    CA527165   1.378   0.454   5.137 -0.2068 -0.5486 -0.2087
17594THY    CM127166   1.257   0.534   5.112  0.5911  0.2959 -0.5576
17594THY    HM127167   1.269   0.604   5.028 -0.7686 -0.8655 -1.6671
17594THY    HM227168   1.224   0.586   5.202  1.5318  0.0187  0.5655
17594THY    HM327169   1.179   0.460   5.092  1.4809 -0.5827 -1.3064
17594THY    CA627170   1.495   0.474   5.071 -0.4171 -0.2601 -0.1724
17594THY    HA627171   1.504   0.546   4.990  1.2068  0.2336  0.2267
17595THY      O27172   1.361   4.337   2.318 -0.4898  0.0685  0.0659
17595THY     HO27173   1.434   4.276   2.338 -0.6800 -1.0574 -0.5765
17595THY    CA127174   1.323   4.309   2.190 -0.0387  0.5754 -0.2387
17595THY    CA227175   1.257   4.410   2.122  0.0653  0.4422  0.0183
17595THY    CP127176   1.237   4.552   2.181 -0.3447  0.2746 -0.1585
17595THY    HP127177   1.266   4.561   2.287  2.4353 -0.4964  1.0004
17595THY    CP227178   1.101   4.605   2.158  0.5537  0.6667 -0.8290
17595THY    HP227179   1.029   4.526   2.183 -0.2208  2.1101  0.2871
17595THY    HP327180   1.096   4.629   2.051  0.3045  0.5887 -1.2140
17595THY    HP427181   1.071   4.683   2.229  0.1054 -0.9039  0.4821
17595THY    CP327182   1.340   4.643   2.107  0.6275  0.1996 -0.0590
17595THY    HP527183   1.443   4.621   2.139  0.3368 -0.3568 -2.5224
17595THY    HP627184   1.310   4.747   2.128  1.3088  0.3799  0.1065
17595THY    HP727185   1.318   4.637   2.000 -0.8238  0.5557 -2.3779
17595THY    CA327186   1.219   4.380   1.983  0.2086 -0.2562 -0.6892
17595THY    HA327187   1.183   4.459   1.916  0.6897 -0.3297 -0.5329
17595THY    CA427188   1.237   4.244   1.932 -1.2308  0.2027 -0.0339
17595THY    HA427189   1.227   4.230   1.825  1.8198 -0.2286  0.4131
17595THY    CA527190   1.300   4.153   2.017 -0.1112 -0.3200  0.3254
17595THY    CM127191   1.334   4.019   1.969  0.1398 -0.9082  0.8849
17595THY    HM127192   1.332   3.943   2.047  0.8986 -1.7881 -0.0693
17595THY    HM227193   1.438   4.023   1.934  0.0517 -1.4719 -0.8564
17595THY    HM327194   1.262   3.990   1.892 -0.0271 -0.3559 -0.2002
17595THY    CA627195   1.337   4.183   2.149  0.6331  0.2481 -0.4821
17595THY    HA627196   1.376   4.109   2.218 -1.7097  1.8646 -0.3155
17596THY      O27197   1.675   8.378   4.185  0.5704  1.2365  0.1558
17596THY     HO27198   1.733   8.301   4.195 -0.4842  0.7179 -0.7266
17596THY    CA127199   1.572   8.326   4.112  0.1278  0.2399 -0.4667
17596THY    CA227200   1.443   8.362   4.135 -0.4982  0.6968 -0.1343
17596THY    CP127201   1.399   8.470   4.232 -0.1631  0.7046  1.0764
17596THY    HP127202   1.481   8.498   4.300  0.0147  0.6181  0.7656
17596THY    CP227203   1.293   8.428   4.327 -0.3935  0.2610 -0.4827
17596THY    HP227204   1.206   8.434   4.261 -0.4338  0.3857  0.4513
17596THY    HP327205   1.285   8.499   4.411  0.9876 -0.5287  0.6608
17596THY    HP427206   1.316   8.330   4.369 -1.7236 -1.9797 -1.8380
17596THY    CP327207   1.358   8.597   4.159  0.1823 -0.3921 -0.4398
17596THY    HP527208   1.284   8.578   4.081  1.7167 -1.9200 -0.3673
17596THY    HP627209   1.439   8.638   4.097  0.2795 -1.0324 -1.5659
17596THY    HP727210   1.320   8.668   4.234  0.8770  1.6345 -2.1127
17596THY    CA327211   1.339   8.305   4.060  0.2864  0.2585  0.3288
17596THY    HA327212   1.234   8.331   4.074 -0.0316 -1.4552  0.0782
17596THY    CA427213   1.369   8.208   3.963  0.8535  0.2213 -0.3128
17596THY    HA427214   1.292   8.157   3.905  0.9180  1.7295 -2.2294
17596THY    CA527215   1.498   8.173   3.940 -0.0567  0.0684  0.8402
17596THY    CM127216   1.529   8.089   3.816 -1.0415 -0.0624 -0.1402
17596THY    HM127217   1.468   8.099   3.725  2.4791 -2.5512  0.6672
17596THY    HM227218   1.533   7.985   3.851  1.3842 -0.2964 -0.1872
17596THY    HM327219   1.631   8.117   3.786 -1.7460 -0.7662  1.7871
17596THY    CA627220   1.599   8.232   4.015 -0.0012 -0.0569 -0.1739
17596THY    HA627221   1.703   8.211   3.990  0.1347 -0.5057  0.9758
17597THY      O27222   1.634   5.202   2.671 -0.0756 -0.6036 -0.0964
17597THY     HO27223   1.645   5.256   2.590  1.9733  1.7104  3.3638
17597THY    CA127224   1.759   5.209   2.729  0.8332  0.2294 -0.1084
17597THY    CA227225   1.779   5.243   2.861  0.7653 -0.4068 -0.6347
17597THY    CP127226   1.655   5.283   2.947 -0.2571  0.5543  0.4339
17597THY    HP127227   1.586   5.344   2.887 -1.7948  0.4626 -1.3191
17597THY    CP227228   1.687   5.375   3.057  0.2105 -0.6346 -0.7949
17597THY    HP227229   1.592   5.412   3.097  0.3735  2.0024 -2.8869
17597THY    HP327230   1.744   5.461   3.021  0.7646  0.0437 -0.8627
17597THY    HP427231   1.739   5.324   3.140 -1.5588  0.7288 -0.4691
17597THY    CP327232   1.582   5.157   2.998  0.0383  0.4607 -0.4594
17597THY    HP527233   1.509   5.181   3.076  0.2728  1.0967 -1.7506
17597THY    HP627234   1.644   5.088   3.056 -1.5077  1.8976 -0.7118
17597THY    HP727235   1.532   5.096   2.922 -1.0408  1.3740 -0.7365
17597THY    CA327236   1.908   5.246   2.908  0.1828  0.3577 -0.6705
17597THY    HA327237   1.928   5.275   3.011  0.1235  0.1796  0.0162
17597THY    CA427238   2.017   5.226   2.822  0.4049  0.4039  0.2300
17597THY    HA427239   2.119   5.234   2.858  0.3752  1.5568 -3.0671
17597THY    CA527240   1.987   5.193   2.687  0.0824 -0.0665 -0.2380
17597THY    CM127241   2.112   5.160   2.602  0.9743  0.1221  0.1316
17597THY    HM127242   2.202   5.183   2.660  1.2207 -0.1186 -0.2144
17597THY    HM227243   2.107   5.217   2.508  0.2683  0.1481  0.1200
17597THY    HM327244   2.120   5.053   2.583  0.5515  0.6524  0.0054
17597THY    CA627245   1.857   5.177   2.642  0.1302 -0.1722 -0.1398
17597THY    HA627246   1.833   5.150   2.540  0.5791  0.4767 -3.3663
17598THY      O27247   4.909   2.157   7.450  0.5100 -0.5643 -0.8342
17598THY     HO27248   4.907   2.242   7.497  2.1346 -1.0865 -0.4737
17598THY    CA127249   5.038   2.139   7.419  0.3055 -0.2435 -0.6139
17598THY    CA227250   5.093   2.030   7.349  0.2390  0.1101 -0.2949
17598THY    CP127251   5.014   1.915   7.290 -0.2560 -0.1289 -0.4100
17598THY    HP127252   4.909   1.932   7.314 -0.6503 -2.7598  1.4660
17598THY    CP227253   5.057   1.779   7.341 -0.5070 -0.5018  0.4694
17598THY    HP227254   4.984   1.704   7.310  1.5945 -1.1352 -1.4347
17598THY    HP327255   5.049   1.769   7.450 -3.8356 -0.7729 -1.1485
17598THY    HP427256   5.154   1.743   7.306  0.7271  4.1412 -1.3848
17598THY    CP327257   5.030   1.916   7.136  0.3224 -0.0766  0.4325
17598THY    HP527258   4.981   1.830   7.088 -0.4789  2.8053 -0.8394
17598THY    HP627259   5.137   1.908   7.118  0.4077 -0.2510  1.7014
17598THY    HP727260   4.984   2.011   7.105 -0.3804 -0.7249 -0.1049
17598THY    CA327261   5.234   2.024   7.334 -0.4966  0.2257 -0.4611
17598THY    HA327262   5.285   1.946   7.279 -0.6291 -0.9721  0.2758
17598THY    CA427263   5.310   2.133   7.383 -0.3325  0.3584  0.6168
17598THY    HA427264   5.418   2.125   7.374 -0.3322 -0.3190  1.3677
17598THY    CA527265   5.249   2.240   7.447 -0.0131 -0.2465  0.1426
17598THY    CM127266   5.321   2.349   7.516 -1.0487  0.5378  0.1949
17598THY    HM127267   5.424   2.360   7.479 -1.0078  0.8639  0.9191
17598THY    HM227268   5.306   2.320   7.621 -2.0449 -0.2440 -2.4383
17598THY    HM327269   5.282   2.446   7.485  1.2309 -0.3700  0.8916
17598THY    CA627270   5.118   2.241   7.474  0.4443 -0.0492  0.0294
17598THY    HA627271   5.060   2.313   7.532  0.2255 -1.2940  0.8836
17599THY      O27272   2.145   6.706   4.975  0.0597 -0.0410 -0.1480
17599THY     HO27273   2.095   6.650   5.036 -1.8644  0.4696  1.9730
17599THY    CA127274   2.236   6.780   5.044  0.8341 -0.7152  0.0097
17599THY    CA227275   2.354   6.817   4.982  0.1895  0.2863 -1.0054
17599THY    CP127276   2.387   6.763   4.834  0.2603 -0.8441  0.1997
17599THY    HP127277   2.310   6.701   4.787  1.8447 -3.7061  0.2133
17599THY    CP227278   2.513   6.673   4.815  0.1151  0.2128 -0.7723
17599THY    HP227279   2.524   6.647   4.709 -1.2040  0.2387 -1.5294
17599THY    HP327280   2.501   6.572   4.856  2.9750  0.5183 -1.0616
17599THY    HP427281   2.598   6.726   4.858 -0.2509  0.4753 -0.3920
17599THY    CP327282   2.395   6.889   4.744  0.2193  0.0686 -0.4714
17599THY    HP527283   2.323   6.963   4.782  1.3555  0.1163  0.6316
17599THY    HP627284   2.368   6.861   4.642 -0.7167  0.3660 -0.7087
17599THY    HP727285   2.495   6.932   4.754 -0.0883 -3.5353  1.4318
17599THY    CA327286   2.437   6.912   5.050 -0.4791 -0.0340  0.2156
17599THY    HA327287   2.537   6.938   5.014 -1.1389 -0.3309  2.5582
17599THY    CA427288   2.403   6.951   5.178  0.5204 -0.0874  0.6268
17599THY    HA427289   2.462   7.014   5.243 -0.3644  1.4495 -0.0732
17599THY    CA527290   2.284   6.904   5.246 -0.4460  0.7500  0.3303
17599THY    CM127291   2.247   6.955   5.377 -0.0452 -0.0247  0.2975
17599THY    HM127292   2.236   6.869   5.444 -1.8219  0.2976  0.7379
17599THY    HM227293   2.153   7.012   5.371  0.2503  1.7082  1.0132
17599THY    HM327294   2.317   7.024   5.426 -1.5881  0.3775  1.6421
17599THY    CA627295   2.205   6.809   5.183  0.7776  1.4861  0.3477
17599THY    HA627296   2.111   6.782   5.230  0.4120  0.5136 -0.1260
17600THY      O27297   5.924   5.239   2.048 -0.0397 -0.4099 -0.4184
17600THY     HO27298   5.896   5.332   2.045  1.3876  0.5598  0.0731
17600THY    CA127299   6.061   5.238   2.056 -1.0261 -0.0374 -0.6481
17600THY    CA227300   6.131   5.142   2.134  0.0548  0.6841  0.0753
17600THY    CP127301   6.050   5.050   2.224  0.3345  0.0219 -0.0825
17600THY    HP127302   5.946   5.036   2.191  0.5580  0.4055 -3.6463
17600THY    CP227303   6.033   5.100   2.361  0.2130 -0.0269 -1.1226
17600THY    HP227304   6.130   5.090   2.412 -0.9561  2.7106  0.2736
17600THY    HP327305   5.954   5.043   2.413  0.7146 -0.5880 -2.3613
17600THY    HP427306   5.999   5.204   2.350 -0.2252  3.0540 -0.8402
17600THY    CP327307   6.104   4.904   2.207  0.3894  0.0302  0.0788
17600THY    HP527308   6.041   4.837   2.266 -2.4613  0.4444  2.8803
17600THY    HP627309   6.212   4.901   2.219  0.3015  0.7329 -0.8854
17600THY    HP727310   6.092   4.875   2.102  0.7891 -0.1591  0.5911
17600THY    CA327311   6.271   5.144   2.140  0.0901  0.5282  0.2148
17600THY    HA327312   6.321   5.075   2.208  0.7398 -0.2656 -0.1037
17600THY    CA427313   6.344   5.229   2.053 -0.0484 -0.1074  0.0520
17600THY    HA427314   6.452   5.225   2.046  0.0456 -0.5650  2.4166
17600THY    CA527315   6.276   5.324   1.976  0.3504 -0.3935  0.8472
17600THY    CM127316   6.344   5.428   1.893 -0.3899  0.0434 -0.5979
17600THY    HM127317   6.342   5.528   1.937  3.9117 -0.0615 -0.3132
17600THY    HM227318   6.295   5.427   1.795 -2.2204  0.9056 -0.7033
17600THY    HM327319   6.449   5.404   1.874 -0.4169  1.8833 -2.4714
17600THY    CA627320   6.134   5.332   1.980  0.0868  0.2395  0.1436
17600THY    HA627321   6.087   5.408   1.918  2.0269  1.9007  2.8792
17601THY      O27322   4.132   4.811   6.537  0.1227  0.0381 -0.2264
17601THY     HO27323   4.040   4.785   6.552 -1.2408 -0.7594  3.4121
17601THY    CA127324   4.205   4.787   6.646  0.4068 -0.2850 -0.1813
17601THY    CA227325   4.345   4.796   6.650  0.1354 -0.5437  0.8896
17601THY    CP127326   4.428   4.847   6.535 -0.2894  0.7277 -0.3517
17601THY    HP127327   4.365   4.888   6.455 -1.4600  1.9198  0.2618
17601THY    CP227328   4.504   4.737   6.465 -0.3881  0.2763 -0.4544
17601THY    HP227329   4.562   4.781   6.382 -0.3726  0.2807 -0.4668
17601THY    HP327330   4.438   4.665   6.417  1.4174 -0.7881 -1.4801
17601THY    HP427331   4.573   4.697   6.540 -1.6195  2.0004  0.5464
17601THY    CP327332   4.525   4.964   6.564  0.6088 -0.1832 -0.3040
17601THY    HP527333   4.594   4.946   6.648 -0.6961  0.8317 -0.6768
17601THY    HP627334   4.462   5.051   6.584  0.6368  2.8265 -0.8691
17601THY    HP727335   4.581   4.993   6.474 -0.5321 -0.3288  1.6402
17601THY    CA327336   4.411   4.747   6.767 -0.3255 -0.1438 -0.0508
17601THY    HA327337   4.519   4.753   6.777 -0.3266 -0.2492  0.1723
17601THY    CA427338   4.345   4.695   6.873  0.3843 -0.6019 -0.3370
17601THY    HA427339   4.408   4.667   6.957  0.7369 -1.7672 -3.4902
17601THY    CA527340   4.206   4.704   6.878  0.5528  0.5538 -0.0132
17601THY    CM127341   4.125   4.636   6.990 -0.0212  0.4457 -1.1361
17601THY    HM127342   4.021   4.671   6.995  0.4995 -0.4432  0.6912
17601THY    HM227343   4.165   4.640   7.092  0.3907  0.2631 -0.0426
17601THY    HM327344   4.112   4.530   6.969 -1.6947  0.4872 -0.9598
17601THY    CA627345   4.139   4.745   6.757 -0.2840  0.4830  0.3598
17601THY    HA627346   4.031   4.737   6.760 -0.3564 -0.6181  0.8242
17602THY      O27347   0.340   4.611   7.850  0.0694 -0.0659 -1.0376
17602THY     HO27348   0.277   4.615   7.776  0.3458 -0.2437  1.9707
17602THY    CA127349   0.461   4.590   7.789 -0.1789 -0.0445 -0.2604
17602THY    CA227350   0.574   4.572   7.869  0.2623  0.0512 -0.1366
17602THY    CP127351   0.572   4.578   8.020  0.2571 -0.1213 -0.4739
17602THY    HP127352   0.481   4.625   8.059  0.9585 -1.3041  2.0344
17602THY    CP227353   0.683   4.672   8.068 -0.0544 -0.4402  0.4340
17602THY    HP227354   0.671   4.702   8.173 -0.1038 -0.3709  0.1745
17602THY    HP327355   0.671   4.761   8.005 -0.3009 -0.0824  0.6574
17602THY    HP427356   0.781   4.624   8.063 -0.4530 -2.7910 -0.2973
17602THY    CP327357   0.585   4.442   8.082 -0.5860  0.3043  1.0498
17602THY    HP527358   0.539   4.431   8.181 -0.3486  0.1632 -2.1097
17602THY    HP627359   0.689   4.407   8.088 -0.1732 -1.9781  1.7748
17602THY    HP727360   0.539   4.365   8.020 -0.4871  1.9301 -0.3694
17602THY    CA327361   0.702   4.537   7.815 -0.2003  0.2465  0.8471
17602THY    HA327362   0.792   4.529   7.875 -1.1240  1.4513 -1.4134
17602THY    CA427363   0.705   4.521   7.667 -0.1117 -0.4229  0.4458
17602THY    HA427364   0.790   4.479   7.615  0.2165  1.5097 -1.4364
17602THY    CA527365   0.593   4.555   7.596  0.2593  0.2648 -0.0189
17602THY    CM127366   0.599   4.553   7.447  0.1840  0.8628  0.8085
17602THY    HM127367   0.699   4.567   7.404  0.1389  0.8430  1.0669
17602THY    HM227368   0.541   4.634   7.401  1.8689 -2.0079  0.5258
17602THY    HM327369   0.561   4.458   7.408  3.3435  1.2348 -0.7441
17602THY    CA627370   0.473   4.590   7.655 -0.1447 -0.0555  0.1496
17602THY    HA627371   0.385   4.609   7.595 -0.4791  0.3256 -0.1598
17603THY      O27372   4.456   5.500   1.838 -0.1936  0.2443  0.2737
17603THY     HO27373   4.480   5.571   1.776  2.4981 -1.4749 -1.9386
17603THY    CA127374   4.321   5.492   1.838  0.0708  0.2196  0.1392
17603THY    CA227375   4.250   5.374   1.886 -0.1487 -0.1642 -0.0603
17603THY    CP127376   4.339   5.254   1.927  0.0803 -0.5363  0.5475
17603THY    HP127377   4.436   5.279   1.972  0.1603  0.4661 -1.3274
17603THY    CP227378   4.366   5.166   1.803  0.6615 -0.1149  0.0259
17603THY    HP227379   4.383   5.062   1.833 -4.0320  0.4584 -0.8054
17603THY    HP327380   4.455   5.201   1.751  0.2542 -0.7822  0.0979
17603THY    HP427381   4.276   5.177   1.740  2.2277 -2.3992  0.5779
17603THY    CP327382   4.268   5.165   2.031 -0.1414 -0.8137  0.5126
17603THY    HP527383   4.327   5.081   2.071 -0.2989 -2.4727 -0.4376
17603THY    HP627384   4.178   5.119   1.987  0.5366  0.2333 -1.9956
17603THY    HP727385   4.236   5.217   2.122 -0.6174 -1.1275  0.7840
17603THY    CA327386   4.106   5.380   1.889  0.4978  0.0787  0.3332
17603THY    HA327387   4.048   5.298   1.931 -2.0498 -0.7060  1.6180
17603THY    CA427388   4.042   5.494   1.851  0.0926  0.3907 -0.1073
17603THY    HA427389   3.934   5.504   1.850  0.0758  1.7442 -0.0041
17603THY    CA527390   4.111   5.602   1.801  0.1808  0.2736 -0.2614
17603THY    CM127391   4.039   5.726   1.753 -0.0708 -0.2022 -0.1469
17603THY    HM127392   4.091   5.809   1.802  0.9641  0.4049 -1.1102
17603THY    HM227393   3.934   5.725   1.785  0.3117  1.1164 -0.1893
17603THY    HM327394   4.042   5.734   1.644 -2.8928 -0.5903 -2.8143
17603THY    CA627395   4.253   5.601   1.789 -0.2220  0.3827 -0.2304
17603THY    HA627396   4.300   5.692   1.754 -0.1682  0.2896 -0.2942
17604THY      O27397   7.908   6.788   5.883 -0.5277  0.4213  0.1760
17604THY     HO27398   7.905   6.878   5.921 -0.6135  0.1899  0.2726
17604THY    CA127399   7.774   6.758   5.884 -0.3002 -0.2612  0.2938
17604THY    CA227400   7.726   6.641   5.820  0.6701  0.0264  0.7085
17604THY    CP127401   7.814   6.544   5.746 -0.7956  0.3690 -0.3058
17604THY    HP127402   7.749   6.463   5.710  0.4816  0.6876 -1.5256
17604THY    CP227403   7.924   6.479   5.836  0.3786  0.4390  0.0179
17604THY    HP227404   8.007   6.549   5.853  2.0522 -0.8929 -1.5126
17604THY    HP327405   7.967   6.403   5.770  4.2267  4.0926 -1.3441
17604THY    HP427406   7.876   6.423   5.917 -0.8678 -0.5538 -0.4079
17604THY    CP327407   7.880   6.600   5.613  0.2557 -0.2645  0.6986
17604THY    HP527408   7.799   6.633   5.546 -2.3345  1.8780 -0.8749
17604THY    HP627409   7.936   6.517   5.569 -0.0966  1.5486 -0.5580
17604THY    HP727410   7.960   6.670   5.638  1.6146 -2.0200 -0.1520
17604THY    CA327411   7.584   6.613   5.826 -0.7571 -0.0789 -0.4039
17604THY    HA327412   7.546   6.517   5.792  1.4093  1.6019 -1.9516
17604THY    CA427413   7.504   6.704   5.891 -0.2807  0.0108  0.0151
17604THY    HA427414   7.400   6.676   5.906 -0.9590 -3.2958  0.2977
17604THY    CA527415   7.547   6.819   5.946  0.5364 -0.7139  0.2310
17604THY    CM127416   7.447   6.898   6.029 -0.3857 -0.2690 -0.3270
17604THY    HM127417   7.359   6.919   5.966 -1.4289  1.3652  0.3821
17604THY    HM227418   7.494   6.986   6.074 -0.6126  1.3228 -0.9777
17604THY    HM327419   7.402   6.844   6.113 -0.5194  1.7326  2.7086
17604THY    CA627420   7.681   6.848   5.945 -0.6997 -0.7588 -0.1515
17604THY    HA627421   7.711   6.941   5.994 -0.2931  1.1795 -1.2387
17605THY      O27422   8.245   7.987   5.725  0.4867  0.3298 -0.0716
17605THY     HO27423   8.259   7.953   5.815 -0.0765  0.3089 -0.3734
17605THY    CA127424   8.125   7.937   5.687  0.8474  0.9339 -0.6748
17605THY    CA227425   8.085   7.932   5.551 -0.2922  0.3666 -0.1413
17605THY    CP127426   8.191   7.959   5.444 -0.4019  0.1093 -0.9758
17605THY    HP127427   8.293   7.971   5.482  0.3813 -2.1798  0.3472
17605THY    CP227428   8.157   8.095   5.363  0.1974  0.2514  0.3107
17605THY    HP227429   8.159   8.181   5.430 -0.2958  0.8179 -0.1107
17605THY    HP327430   8.056   8.091   5.322  0.6058 -0.7552 -2.7233
17605THY    HP427431   8.228   8.115   5.282 -0.9231 -1.3480 -1.7764
17605THY    CP327432   8.214   7.831   5.348 -0.2281  0.1436 -0.3916
17605THY    HP527433   8.231   7.747   5.416 -1.9245  2.7166  1.1916
17605THY    HP627434   8.296   7.836   5.276 -1.2911 -1.0549  0.7543
17605THY    HP727435   8.121   7.808   5.295 -2.2384  3.3591 -0.3172
17605THY    CA327436   7.952   7.900   5.519  0.1338 -0.3831 -0.2685
17605THY    HA327437   7.921   7.898   5.415 -0.6038 -0.2025  0.7849
17605THY    CA427438   7.865   7.856   5.618  0.3099 -0.0900  0.0267
17605THY    HA427439   7.762   7.835   5.589  0.3744 -0.6482  0.4527
17605THY    CA527440   7.910   7.858   5.756  0.5454  0.9007 -0.2370
17605THY    CM127441   7.816   7.831   5.872  0.1579  0.3101 -0.4213
17605THY    HM127442   7.797   7.725   5.892 -2.0262  0.1404 -0.1149
17605THY    HM227443   7.721   7.879   5.846  0.2329  0.0773 -0.3972
17605THY    HM327444   7.855   7.872   5.966 -0.6470  0.7146 -0.5493
17605THY    CA627445   8.040   7.901   5.786  0.7607  0.1164  0.0923
17605THY    HA627446   8.064   7.907   5.891 -0.7532  0.3964  3.3457
17606THY      O27447   4.735   2.725   3.808  0.5834  0.3681 -0.0203
17606THY     HO27448   4.827   2.693   3.815  0.8135  2.5160  0.9498
17606THY    CA127449   4.728   2.819   3.718 -0.2045  0.0972 -0.7732
17606THY    CA227450   4.609   2.890   3.689  0.0392  0.5641 -0.2516
17606THY    CP127451   4.476   2.863   3.766 -0.3070 -0.6551 -0.4660
17606THY    HP127452   4.506   2.822   3.863  4.3390 -1.6407  0.0544
17606THY    CP227453   4.388   2.763   3.696 -0.0445  0.4661 -0.3352
17606THY    HP227454   4.310   2.737   3.767 -0.4686  0.1591  0.0757
17606THY    HP327455   4.433   2.666   3.669 -0.1179 -2.0902  0.2568
17606THY    HP427456   4.336   2.796   3.605 -0.4992  1.3125  1.3757
17606THY    CP327457   4.396   2.991   3.790  0.2381 -0.1018  0.8821
17606THY    HP527458   4.345   3.024   3.699  0.8724  0.0972  2.5381
17606THY    HP627459   4.451   3.078   3.830  0.2645  0.2968  0.6861
17606THY    HP727460   4.315   2.958   3.856  0.4859 -0.0359  0.3996
17606THY    CA327461   4.608   2.964   3.570 -0.5169  0.7311 -0.1312
17606THY    HA327462   4.520   3.020   3.539  0.8411 -0.3176  1.5500
17606THY    CA427463   4.725   2.984   3.489 -0.4960 -0.3892 -0.8820
17606THY    HA427464   4.722   3.057   3.408  1.7904 -0.0713 -0.3543
17606THY    CA527465   4.842   2.937   3.540 -0.2387  0.2314 -0.1577
17606THY    CM127466   4.976   2.955   3.459  0.4142 -0.8373 -0.3423
17606THY    HM127467   4.968   3.058   3.423 -0.2967  0.1286 -0.0459
17606THY    HM227468   4.972   2.880   3.379 -0.5699  1.6664 -3.1356
17606THY    HM327469   5.068   2.941   3.517 -0.3141 -0.3719 -4.5739
17606THY    CA627470   4.845   2.850   3.654  0.1502  0.6935 -0.0932
17606THY    HA627471   4.938   2.801   3.682  0.1592  0.8515  0.0122
17607THY      O27472   1.386   8.863   6.044 -0.3105  0.6421  0.0722
17607THY     HO27473   1.470   8.845   5.998 -2.1809 -3.7671  1.0728
17607THY    CA127474   1.375   8.780   6.141 -0.1000 -0.2516  0.3540
17607THY    CA227475   1.291   8.815   6.251  0.5513 -0.1598  0.2154
17607THY    CP127476   1.217   8.947   6.253 -0.2546 -0.3668  0.0874
17607THY    HP127477   1.263   9.009   6.175  1.0399  0.0541 -0.3169
17607THY    CP227478   1.246   9.012   6.389 -0.3427 -0.6065 -0.3391
17607THY    HP227479   1.233   8.956   6.483 -0.1103  0.1840  0.8938
17607THY    HP327480   1.189   9.106   6.399  1.3505 -0.0073  0.6605
17607THY    HP427481   1.354   9.026   6.397 -0.4421 -1.7523  1.4340
17607THY    CP327482   1.067   8.944   6.223 -0.2896  0.3343 -0.2108
17607THY    HP527483   1.019   9.042   6.228 -2.0641 -0.4620 -0.9865
17607THY    HP627484   1.013   8.882   6.296  0.0559 -0.7640 -1.8741
17607THY    HP727485   1.034   8.904   6.126  0.8845 -0.5529  0.8967
17607THY    CA327486   1.266   8.714   6.352 -0.2303 -0.7163 -0.0149
17607THY    HA327487   1.195   8.727   6.433 -2.2422 -1.9846 -2.2891
17607THY    CA427488   1.329   8.590   6.337 -0.0784 -0.5476 -0.2455
17607THY    HA427489   1.310   8.519   6.416  0.7567 -0.4750 -0.4063
17607THY    CA527490   1.416   8.563   6.228  0.4024 -0.1991 -0.7628
17607THY    CM127491   1.475   8.426   6.217  0.1902  0.0635 -0.0476
17607THY    HM127492   1.525   8.410   6.121  0.1740 -0.1204  0.9604
17607THY    HM227493   1.397   8.349   6.216 -0.1707 -0.4547  0.3196
17607THY    HM327494   1.546   8.406   6.298 -1.3271  1.0741 -1.6157
17607THY    CA627495   1.439   8.658   6.132 -0.3123 -0.1719 -0.4426
17607THY    HA627496   1.500   8.635   6.045 -1.1741 -1.1691  0.9166
17608THY      O27497   6.677   8.497   5.612  0.5404 -0.3372 -0.2594
17608THY     HO27498   6.682   8.549   5.694 -1.6874  0.6500 -1.4671
17608THY    CA127499   6.652   8.573   5.507  0.9124 -0.0052  0.0975
17608THY    CA227500   6.607   8.521   5.381 -0.1791  0.5409  0.9288
17608THY    CP127501   6.585   8.365   5.364  0.4571  0.7832  0.1368
17608THY    HP127502   6.653   8.304   5.424 -1.0641  0.3300 -2.1407
17608THY    CP227503   6.618   8.331   5.208 -0.2089  0.2163  0.3770
17608THY    HP227504   6.525   8.345   5.153  0.0183 -0.3946 -0.4574
17608THY    HP327505   6.654   8.228   5.198 -3.5883  1.1779 -1.0419
17608THY    HP427506   6.696   8.394   5.165  2.5638  0.7345 -2.4626
17608THY    CP327507   6.439   8.325   5.409  0.7051  0.4972  0.2185
17608THY    HP527508   6.420   8.217   5.406  1.5150 -0.4188  0.0819
17608THY    HP627509   6.376   8.372   5.333  0.2335  0.0016 -1.1687
17608THY    HP727510   6.426   8.365   5.510  0.5495 -0.3637  2.4872
17608THY    CA327511   6.566   8.619   5.288  0.3249 -0.5604  0.9483
17608THY    HA327512   6.523   8.591   5.192 -1.6262  0.0144  1.7817
17608THY    CA427513   6.568   8.754   5.315 -0.0872  0.5082  0.7407
17608THY    HA427514   6.533   8.818   5.234 -2.1233 -0.7441 -1.7619
17608THY    CA527515   6.604   8.806   5.441 -0.5600  0.4403  0.2638
17608THY    CM127516   6.606   8.958   5.464 -0.0051  0.3208 -0.3221
17608THY    HM127517   6.708   8.979   5.498  0.0805  0.7028 -1.2726
17608THY    HM227518   6.532   8.981   5.541 -0.7643 -1.0017  2.0315
17608THY    HM327519   6.584   9.019   5.376 -0.7095 -0.3380 -1.4739
17608THY    CA627520   6.642   8.713   5.538  0.2118  0.0827  0.8678
17608THY    HA627521   6.657   8.752   5.638 -0.7333  1.5430 -2.2014
17609THY      O27522   7.751   5.140   5.829  0.2068 -0.0994  0.4009
17609THY     HO27523   7.667   5.103   5.861 -0.6339 -2.4383  0.1031
17609THY    CA127524   7.740   5.159   5.703  0.0330 -0.1305 -0.5973
17609THY    CA227525   7.847   5.197   5.624  0.4605 -0.1298  0.2370
17609THY    CP127526   7.984   5.230   5.680 -0.1034  0.5989  0.5084
17609THY    HP127527   7.969   5.283   5.775 -0.7453  0.2261  1.0022
17609THY    CP227528   8.067   5.320   5.598 -0.6463  0.3010 -0.1061
17609THY    HP227529   8.019   5.419   5.604 -2.0975 -1.3077 -0.6591
17609THY    HP327530   8.102   5.284   5.500  2.0152  0.3198  2.0662
17609THY    HP427531   8.155   5.330   5.663  0.1683 -0.4751 -1.8534
17609THY    CP327532   8.057   5.101   5.725 -0.3898  0.3024  0.0390
17609THY    HP527533   8.092   5.043   5.639 -3.1103 -0.9840  0.1644
17609THY    HP627534   7.991   5.042   5.790 -0.1433 -0.9493 -1.6959
17609THY    HP727535   8.146   5.136   5.779 -1.1453  1.6117  0.0126
17609THY    CA327536   7.832   5.203   5.487 -0.1435  0.1941 -0.1638
17609THY    HA327537   7.916   5.217   5.419 -1.2567 -1.2117 -0.1594
17609THY    CA427538   7.715   5.145   5.432  0.4639  0.4889  0.1805
17609THY    HA427539   7.702   5.132   5.325  0.9420  0.4895 -0.3489
17609THY    CA527540   7.609   5.102   5.513  0.0209  0.4695 -0.1961
17609THY    CM127541   7.482   5.066   5.446 -0.0135 -0.1884  0.4791
17609THY    HM127542   7.468   4.960   5.473 -1.2898 -0.0567  0.6658
17609THY    HM227543   7.489   5.086   5.339  0.4646 -0.4851 -1.1142
17609THY    HM327544   7.405   5.130   5.491  0.0373 -1.7236  1.6643
17609THY    CA627545   7.619   5.118   5.650  0.3761 -0.4249 -0.4670
17609THY    HA627546   7.528   5.110   5.707  0.0911 -0.2777  2.6559
17610THY      O27547   6.591   9.003   3.657  0.1172 -0.7732 -0.4635
17610THY     HO27548   6.507   9.025   3.613  0.7455 -0.6521  2.6651
17610THY    CA127549   6.678   9.092   3.609  0.3479 -0.5726  0.6675
17610THY    CA227550   6.778   9.136   3.698  0.3168  0.7996 -0.0731
17610THY    CP127551   6.777   9.096   3.852  0.2930  0.7365 -0.5826
17610THY    HP127552   6.728   8.998   3.866 -1.0752  0.1116 -0.0227
17610THY    CP227553   6.690   9.189   3.936 -0.6118  0.1347 -0.6098
17610THY    HP227554   6.682   9.158   4.041 -0.3923 -0.2933 -2.2030
17610THY    HP327555   6.584   9.183   3.908 -0.1700 -1.6584 -0.7499
17610THY    HP427556   6.722   9.294   3.932  0.9967  0.2559 -1.0592
17610THY    CP327557   6.914   9.088   3.902 -0.6486 -0.1609  0.3047
17610THY    HP527558   6.916   9.045   4.003 -1.2892  0.1203  0.9106
17610THY    HP627559   6.964   9.183   3.922 -0.7012  3.8798 -0.3557
17610THY    HP727560   6.973   9.034   3.827 -1.1028  0.6693 -1.4047
17610THY    CA327561   6.861   9.235   3.642 -0.1471  0.5748 -0.6774
17610THY    HA327562   6.944   9.274   3.700 -1.4060  0.2431  2.7855
17610THY    CA427563   6.841   9.282   3.511 -0.4125 -0.4173 -0.1822
17610THY    HA427564   6.913   9.354   3.475 -0.6601 -0.7331 -0.0890
17610THY    CA527565   6.741   9.239   3.433 -0.6550 -0.2921 -0.6807
17610THY    CM127566   6.700   9.309   3.302  0.0578  0.0474  0.7300
17610THY    HM127567   6.782   9.366   3.257  2.3589  1.3150 -1.3524
17610THY    HM227568   6.611   9.370   3.318 -0.9621  1.8347 -1.0936
17610THY    HM327569   6.680   9.233   3.225 -0.1979  2.3468 -1.7125
17610THY    CA627570   6.658   9.147   3.480  0.0068 -0.1696 -0.0536
17610THY    HA627571   6.571   9.117   3.421 -0.8507  0.5123  1.0092
17611THY      O27572   5.363   5.169   3.100  0.0309 -1.1338  0.5058
17611THY     HO27573   5.267   5.160   3.109  0.3204  0.0513 -3.2284
17611THY    CA127574   5.401   5.290   3.053 -0.2659 -0.3585 -0.7286
17611THY    CA227575   5.502   5.361   3.117  0.3881  0.0891  0.0006
17611THY    CP127576   5.572   5.316   3.249  0.0600 -0.4655  0.4022
17611THY    HP127577   5.578   5.207   3.233  1.4825  0.3677  0.3255
17611THY    CP227578   5.499   5.343   3.375  0.4123 -0.4266 -0.1069
17611THY    HP227579   5.516   5.272   3.457 -0.2991  0.9116  1.2066
17611THY    HP327580   5.392   5.342   3.350  0.3592 -0.1976 -0.2360
17611THY    HP427581   5.519   5.446   3.409  3.0482  1.0202 -0.9898
17611THY    CP327582   5.719   5.368   3.261  0.2323 -1.1695 -0.5863
17611THY    HP527583   5.734   5.475   3.277  0.3984  4.7249 -1.1670
17611THY    HP627584   5.758   5.346   3.161 -2.4231 -2.2251 -0.8420
17611THY    HP727585   5.764   5.332   3.354 -3.2810  1.3739  1.0392
17611THY    CA327586   5.536   5.482   3.057  0.1719 -1.5991 -0.4785
17611THY    HA327587   5.613   5.548   3.094 -0.4185 -1.7537  0.3087
17611THY    CA427588   5.476   5.528   2.942  0.5897  0.2108  0.1558
17611THY    HA427589   5.500   5.619   2.889 -0.5778 -0.1279  0.2866
17611THY    CA527590   5.369   5.457   2.884  0.0528  0.1955 -0.5214
17611THY    CM127591   5.296   5.509   2.764 -0.5788  0.4204  0.4147
17611THY    HM127592   5.216   5.576   2.796  0.4188  0.1707  1.7819
17611THY    HM227593   5.261   5.433   2.693 -0.7789 -2.6736  3.1616
17611THY    HM327594   5.363   5.566   2.697  2.3042  1.6877 -1.2331
17611THY    CA627595   5.331   5.338   2.944  0.2680  0.2808 -0.1405
17611THY    HA627596   5.259   5.272   2.896  1.2243 -0.7356 -0.4793
17612THY      O27597   0.814   5.275   6.005 -0.2610 -0.6439  0.2894
17612THY     HO27598   0.771   5.200   5.958  0.9494  0.3065 -1.0506
17612THY    CA127599   0.734   5.382   5.978 -0.0696 -0.3775  0.6175
17612THY    CA227600   0.762   5.513   6.038  0.2210  0.2070  0.0760
17612THY    CP127601   0.887   5.523   6.127  0.2758 -0.5864 -0.8780
17612THY    HP127602   0.950   5.434   6.119 -0.6791 -2.1961 -1.4555
17612THY    CP227603   0.842   5.522   6.277  0.4169 -0.0317 -0.0638
17612THY    HP227604   0.939   5.540   6.326  1.4575 -0.7212 -3.1468
17612THY    HP327605   0.792   5.435   6.320  0.8705  1.7871  0.5185
17612THY    HP427606   0.772   5.605   6.295  0.4727  2.1841 -0.4411
17612THY    CP327607   0.964   5.653   6.084 -1.0465 -0.3268 -0.2269
17612THY    HP527608   1.009   5.631   5.986  1.6979  0.7146  0.3254
17612THY    HP627609   1.055   5.670   6.143 -0.8944 -0.0515 -1.8521
17612THY    HP727610   0.904   5.745   6.082 -1.9184 -0.0474 -0.7840
17612THY    CA327611   0.669   5.619   6.022 -0.8507 -0.2951 -0.7303
17612THY    HA327612   0.685   5.718   6.063  0.1047  1.1054 -1.4358
17612THY    CA427613   0.552   5.604   5.947  0.5193  0.4722  0.0659
17612THY    HA427614   0.489   5.686   5.917 -1.0135  0.1092 -1.2018
17612THY    CA527615   0.523   5.478   5.889  0.1712 -0.3292 -0.2864
17612THY    CM127616   0.404   5.464   5.816 -0.3254  0.1226  0.1870
17612THY    HM127617   0.346   5.555   5.794 -1.8743 -0.1038 -0.8248
17612THY    HM227618   0.330   5.407   5.873 -0.5320  0.5389  0.8665
17612THY    HM327619   0.424   5.403   5.727  0.4231  0.7753 -0.5431
17612THY    CA627620   0.612   5.366   5.912 -0.0065 -0.4580  0.8662
17612THY    HA627621   0.589   5.263   5.887  0.1064 -0.3993  0.8262
17613THY      O27622   5.174   3.314   5.059 -0.2818 -0.3331  0.1810
17613THY     HO27623   5.190   3.265   4.978 -0.5734  1.7758 -3.7831
17613THY    CA127624   5.191   3.225   5.159  0.3049  0.8014  0.0517
17613THY    CA227625   5.234   3.256   5.289 -0.0768  0.0699 -0.3871
17613THY    CP127626   5.261   3.410   5.310 -0.4147 -0.1225 -0.2668
17613THY    HP127627   5.184   3.464   5.254 -0.0153 -0.6241 -0.2152
17613THY    CP227628   5.398   3.440   5.247  0.9832 -0.1822 -0.1857
17613THY    HP227629   5.383   3.454   5.140  0.6088 -0.1346 -0.2067
17613THY    HP327630   5.480   3.369   5.262  3.6312  0.5930  2.7985
17613THY    HP427631   5.442   3.529   5.294  0.4158  0.6447 -0.3248
17613THY    CP327632   5.260   3.450   5.465  0.1298  0.0702  0.6545
17613THY    HP527633   5.337   3.391   5.516 -1.4342  0.5021 -1.1081
17613THY    HP627634   5.163   3.431   5.511  0.0473 -0.3384  0.0758
17613THY    HP727635   5.277   3.558   5.478  1.1772 -1.3370  0.6895
17613THY    CA327636   5.257   3.160   5.389 -0.3183  0.2713 -0.6323
17613THY    HA327637   5.277   3.189   5.492 -1.3351  0.3938 -0.3026
17613THY    CA427638   5.245   3.026   5.357  0.2656  0.4461 -0.4503
17613THY    HA427639   5.256   2.951   5.435  0.1983  0.5616 -0.3398
17613THY    CA527640   5.198   2.998   5.234  0.3246 -0.2499  0.7706
17613THY    CM127641   5.171   2.854   5.208  0.3551  0.1875 -0.0534
17613THY    HM127642   5.180   2.783   5.292  1.4768 -0.2352 -0.4215
17613THY    HM227643   5.245   2.817   5.137  1.3583  1.3185 -0.2902
17613THY    HM327644   5.074   2.843   5.157  1.2070 -1.2706 -1.1420
17613THY    CA627645   5.170   3.091   5.132  0.5247  0.2745  0.0238
17613THY    HA627646   5.118   3.061   5.042  1.6132 -0.9015  1.4947
17614THY      O27647   2.171   4.278   2.877 -0.4090  0.6105 -0.5716
17614THY     HO27648   2.247   4.225   2.906  1.2347 -0.8866  0.8481
17614THY    CA127649   2.179   4.269   2.743  0.4820 -0.5026  0.1930
17614THY    CA227650   2.091   4.342   2.662  0.1869 -0.4439  0.4834
17614THY    CP127651   1.987   4.433   2.727 -0.4107  0.4511  0.0662
17614THY    HP127652   1.998   4.441   2.835 -4.2547  0.9065  1.5991
17614THY    CP227653   1.845   4.371   2.712  0.3054  0.9371  1.1906
17614THY    HP227654   1.771   4.422   2.774 -0.5965  0.8660  0.0187
17614THY    HP327655   1.838   4.264   2.735  1.2393 -0.4730  0.8018
17614THY    HP427656   1.817   4.375   2.606 -0.4663  1.1455  1.3302
17614THY    CP327657   2.001   4.572   2.670  0.6806  0.7510 -0.3151
17614THY    HP527658   1.934   4.649   2.710 -2.8295 -0.4933 -2.4608
17614THY    HP627659   1.990   4.594   2.563  4.8801  0.5056  1.4946
17614THY    HP727660   2.106   4.600   2.681  0.6072  0.2716  0.1700
17614THY    CA327661   2.099   4.333   2.525 -0.5863  0.0934  0.3097
17614THY    HA327662   2.032   4.379   2.454  0.2654  0.7780  2.7221
17614THY    CA427663   2.191   4.241   2.465  0.5553 -0.1499  0.2662
17614THY    HA427664   2.190   4.215   2.359 -0.5501  0.6301 -3.3122
17614THY    CA527665   2.280   4.172   2.549  0.4781  0.1501 -0.1806
17614THY    CM127666   2.379   4.075   2.480 -1.0368 -0.7717  0.2560
17614THY    HM127667   2.469   4.118   2.434  0.3828 -0.3668 -2.0773
17614THY    HM227668   2.329   4.026   2.396 -0.2030 -0.2561 -1.5327
17614THY    HM327669   2.405   4.005   2.560 -0.8333  0.9457  2.1745
17614THY    CA627670   2.272   4.183   2.693 -0.2443 -0.0338  0.0247
17614THY    HA627671   2.346   4.133   2.755 -0.0107  0.0965  0.5281
17615THY      O27672   5.188   8.279   4.157  0.5780 -0.0491  0.0019
17615THY     HO27673   5.251   8.333   4.108  2.0543  0.6855 -1.0011
17615THY    CA127674   5.274   8.175   4.191  0.2808  0.4119 -0.4675
17615THY    CA227675   5.248   8.074   4.284 -0.1972  0.1691 -0.8886
17615THY    CP127676   5.118   8.089   4.359  0.8190  0.4304  0.4325
17615THY    HP127677   5.050   8.144   4.292 -0.5379  0.3763 -1.2127
17615THY    CP227678   5.143   8.146   4.500  0.6717  0.2503 -0.1779
17615THY    HP227679   5.186   8.247   4.494  1.5805 -3.6311 -0.6084
17615THY    HP327680   5.208   8.081   4.559  2.8064 -0.1085  1.5134
17615THY    HP427681   5.047   8.168   4.546  2.1773  3.1733  0.7885
17615THY    CP327682   5.057   7.950   4.382  0.5153  0.1722 -0.2135
17615THY    HP527683   5.119   7.890   4.449  2.1301 -1.3678 -0.3629
17615THY    HP627684   5.045   7.892   4.290 -1.8868 -0.7662  1.5933
17615THY    HP727685   4.963   7.968   4.436  0.7304  0.4058  0.2436
17615THY    CA327686   5.351   7.982   4.316 -0.1937 -0.0748 -0.1680
17615THY    HA327687   5.336   7.904   4.390 -2.2438  1.4314  1.5204
17615THY    CA427688   5.468   7.975   4.240  0.4702  0.0585  0.7168
17615THY    HA427689   5.543   7.898   4.257 -0.1398 -0.3115  0.0334
17615THY    CA527690   5.491   8.070   4.141  0.6082  0.4028 -0.8940
17615THY    CM127691   5.624   8.073   4.073  0.5174  0.4511  0.0445
17615THY    HM127692   5.653   7.975   4.033 -1.5256 -0.3723 -0.2773
17615THY    HM227693   5.701   8.100   4.146 -1.4538  2.7508 -0.1912
17615THY    HM327694   5.618   8.144   3.990 -1.0987  0.4400 -0.0712
17615THY    CA627695   5.392   8.160   4.114  0.0106 -0.0927 -0.1575
17615THY    HA627696   5.415   8.232   4.035 -0.6241 -0.2284 -0.0973
17616THY      O27697   7.503   9.173   4.807  0.1168  0.2956 -1.0532
17616THY     HO27698   7.555   9.227   4.745 -1.6233 -1.0952 -0.8706
17616THY    CA127699   7.577   9.180   4.921  0.1270  0.2816  0.5250
17616THY    CA227700   7.529   9.132   5.048  0.2856 -0.2484 -0.7154
17616THY    CP127701   7.397   9.053   5.060 -0.1585  0.0470 -0.0481
17616THY    HP127702   7.370   9.021   4.959 -2.3864  0.5852 -0.0616
17616THY    CP227703   7.286   9.150   5.113  0.3424 -0.2362 -0.2088
17616THY    HP227704   7.189   9.100   5.124  0.5787  0.2019 -0.5757
17616THY    HP327705   7.281   9.241   5.052 -0.5417  1.6637  1.0997
17616THY    HP427706   7.330   9.179   5.210  1.0660 -1.2065  2.2281
17616THY    CP327707   7.413   8.917   5.134  0.6052 -0.1378 -0.5402
17616THY    HP527708   7.326   8.850   5.123  1.4755 -0.5541 -1.6318
17616THY    HP627709   7.429   8.945   5.238 -1.2406  0.2617 -0.8342
17616THY    HP727710   7.499   8.854   5.109  1.4945  1.9546 -0.2430
17616THY    CA327711   7.611   9.162   5.157 -0.4681 -0.9700  0.3340
17616THY    HA327712   7.570   9.132   5.254 -1.6987 -1.0169  1.7173
17616THY    CA427713   7.738   9.226   5.144 -0.7309 -0.6665  1.2432
17616THY    HA427714   7.805   9.250   5.226  0.9676 -1.6595  0.0039
17616THY    CA527715   7.794   9.246   5.020  1.0555  0.2977  0.1923
17616THY    CM127716   7.928   9.310   5.003 -0.4198 -0.0478  0.0436
17616THY    HM127717   7.943   9.402   5.061  2.4329 -0.8791  0.1915
17616THY    HM227718   7.930   9.360   4.905 -2.1121  0.9398  2.2489
17616THY    HM327719   8.017   9.248   5.012 -1.2620 -0.7514 -1.3084
17616THY    CA627720   7.703   9.243   4.908 -0.0722  0.2929  0.3329
17616THY    HA627721   7.736   9.290   4.816 -1.5511  0.6620  2.2340
17617THY      O27722   8.378   6.196   4.016 -0.7453 -0.0808  0.4511
17617THY     HO27723   8.380   6.139   3.937 -1.5067  0.2198 -0.0085
17617THY    CA127724   8.244   6.209   4.057  0.5402 -0.0514 -0.4777
17617THY    CA227725   8.199   6.324   4.124 -0.5455 -0.0554 -0.0890
17617THY    CP127726   8.286   6.446   4.124 -0.1992  0.2440 -0.4047
17617THY    HP127727   8.363   6.438   4.047  2.3251  2.8072 -3.2549
17617THY    CP227728   8.381   6.444   4.256  0.0827  0.3621 -0.1256
17617THY    HP227729   8.437   6.351   4.240 -0.9658 -0.4177 -0.6530
17617THY    HP327730   8.314   6.429   4.341  1.3878  1.6959  1.3234
17617THY    HP427731   8.441   6.535   4.271  0.6756  1.7852 -0.7214
17617THY    CP327732   8.210   6.574   4.118  0.7472 -0.0026 -0.4045
17617THY    HP527733   8.171   6.598   4.218  0.8224  0.2895 -1.4264
17617THY    HP627734   8.128   6.558   4.047  0.2316  0.8184 -1.6287
17617THY    HP727735   8.281   6.653   4.091  0.5177 -1.1900 -0.5848
17617THY    CA327736   8.064   6.327   4.155 -0.2075  0.9180 -0.1152
17617THY    HA327737   8.020   6.417   4.196 -0.4761  1.3429 -0.4365
17617THY    CA427738   7.981   6.216   4.134  0.3036  0.2023 -0.5429
17617THY    HA427739   7.880   6.227   4.171  1.0137  1.8488  1.2985
17617THY    CA527740   8.032   6.099   4.083 -0.3832  0.4284  0.2411
17617THY    CM127741   7.943   5.982   4.062 -0.2162  0.3550  0.0709
17617THY    HM127742   7.875   5.992   3.977  0.4014  0.0510  2.6475
17617THY    HM227743   7.889   5.958   4.154  1.1019  0.8522 -1.0978
17617THY    HM327744   8.013   5.899   4.047 -0.4981 -0.9910  0.0554
17617THY    CA627745   8.164   6.101   4.034  0.1894 -0.4186  0.2515
17617THY    HA627746   8.202   6.012   3.986  0.7223 -0.7734  0.6639
17618THY      O27747   7.648   6.728   4.948 -0.3273 -0.2248 -0.8887
17618THY     HO27748   7.675   6.693   5.035  0.7940 -0.4800 -0.6858
17618THY    CA127749   7.527   6.791   4.966  0.4434  0.0467  0.3071
17618THY    CA227750   7.451   6.835   4.860  0.6427 -0.2197  0.1462
17618THY    CP127751   7.504   6.846   4.720 -0.2554 -0.7346  0.6734
17618THY    HP127752   7.545   6.748   4.694 -0.0742  2.0278 -0.0707
17618THY    CP227753   7.610   6.960   4.709  0.0120 -0.2687  0.3295
17618THY    HP227754   7.633   6.976   4.603 -0.2030 -0.7143 -2.0288
17618THY    HP327755   7.696   6.928   4.769  1.6974 -1.7059  1.9680
17618THY    HP427756   7.566   7.053   4.747  2.0602 -0.8809  1.6159
17618THY    CP327757   7.405   6.867   4.605 -0.2987  0.5706  0.9439
17618THY    HP527758   7.461   6.852   4.512  2.1332  2.2204 -0.9671
17618THY    HP627759   7.347   6.960   4.605 -0.2485  0.7820  0.9756
17618THY    HP727760   7.333   6.785   4.612  0.5179 -1.4348 -0.0144
17618THY    CA327761   7.323   6.876   4.893 -0.0953 -0.4866  0.1699
17618THY    HA327762   7.259   6.919   4.816 -1.9487  1.6299  1.3717
17618THY    CA427763   7.278   6.878   5.025  0.0517  0.0469  0.2628
17618THY    HA427764   7.182   6.920   5.052  0.9401  1.7457  1.3163
17618THY    CA527765   7.358   6.829   5.124 -0.8490  0.1433  0.4418
17618THY    CM127766   7.313   6.842   5.272 -0.2335 -0.3766 -0.1560
17618THY    HM127767   7.218   6.894   5.282  1.2958  0.2650  2.6837
17618THY    HM227768   7.381   6.889   5.344  1.6677 -0.0295 -3.1386
17618THY    HM327769   7.290   6.741   5.307  0.1748 -0.8993 -0.4397
17618THY    CA627770   7.489   6.792   5.099  0.2198  0.0794  0.2518
17618THY    HA627771   7.554   6.764   5.180  0.8656 -0.4922  0.0691
17619THY      O27772   6.204   3.998   5.881 -0.3487  0.1987 -0.0406
17619THY     HO27773   6.183   3.904   5.891 -1.4526  0.6691  0.2428
17619THY    CA127774   6.210   4.037   6.008 -0.8710 -0.4574 -0.3089
17619THY    CA227775   6.280   4.163   6.041 -0.0561  0.0185 -0.2053
17619THY    CP127776   6.370   4.230   5.942  0.3413  0.1741  0.5427
17619THY    HP127777   6.319   4.213   5.846 -0.4786  0.6460  0.2894
17619THY    CP227778   6.510   4.155   5.928  0.7663 -0.0502  0.5525
17619THY    HP227779   6.500   4.046   5.914  1.1017  2.6842  0.0900
17619THY    HP327780   6.557   4.153   6.028 -0.4981  0.5739  1.0840
17619THY    HP427781   6.579   4.201   5.856  0.9094 -0.1727  0.1531
17619THY    CP327782   6.390   4.378   5.948  0.0932 -0.1542  0.6989
17619THY    HP527783   6.297   4.433   5.932  0.9446  0.0454  2.2385
17619THY    HP627784   6.448   4.404   5.858 -1.7857 -2.3802 -2.1294
17619THY    HP727785   6.435   4.415   6.041 -0.3745  0.1358  0.5414
17619THY    CA327786   6.263   4.213   6.171 -0.1438  0.2556  0.0316
17619THY    HA327787   6.316   4.301   6.205 -1.3943  0.7688  0.6139
17619THY    CA427788   6.182   4.131   6.262  0.2031  1.3301  0.4943
17619THY    HA427789   6.180   4.158   6.367 -1.4130  1.1544  1.1445
17619THY    CA527790   6.120   4.017   6.232  0.0079  0.1721 -0.2217
17619THY    CM127791   6.039   3.957   6.329  0.1275 -0.0289 -0.3017
17619THY    HM127792   6.056   3.849   6.341  3.4503  1.1308  0.2228
17619THY    HM227793   5.937   3.970   6.291  0.7746 -2.1826 -1.1593
17619THY    HM327794   6.044   4.002   6.429  1.8189 -0.0669 -0.3237
17619THY    CA627795   6.134   3.970   6.102 -0.1488  0.1205 -0.1324
17619THY    HA627796   6.079   3.881   6.075 -2.1390 -1.6153  1.4984
17620THY      O27797   3.437   5.536   2.372  0.6102  0.1467 -0.6226
17620THY     HO27798   3.399   5.571   2.454  1.3283 -0.3406  1.4578
17620THY    CA127799   3.569   5.575   2.378 -0.3872  0.3569 -0.1839
17620THY    CA227800   3.671   5.504   2.305  0.4867 -0.4255  0.1901
17620THY    CP127801   3.632   5.390   2.204 -0.5925  0.3415 -0.3308
17620THY    HP127802   3.529   5.406   2.170 -0.2002 -0.7764 -0.1310
17620THY    CP227803   3.648   5.255   2.279 -0.2754 -0.4271  0.3262
17620THY    HP227804   3.584   5.276   2.365  0.7382 -0.3235  3.4144
17620THY    HP327805   3.750   5.232   2.312  0.2503 -1.5284  0.9935
17620THY    HP427806   3.602   5.174   2.221  1.5943 -1.3772 -0.1212
17620THY    CP327807   3.727   5.394   2.074  0.7902  0.4483  0.3847
17620THY    HP527808   3.763   5.496   2.059  0.6062 -1.4725  0.1945
17620THY    HP627809   3.675   5.354   1.986  0.7440  0.4893  0.3539
17620THY    HP727810   3.809   5.326   2.100  0.7060  1.8360  0.7770
17620THY    CA327811   3.804   5.544   2.329 -0.5069  0.7113  0.7540
17620THY    HA327812   3.883   5.490   2.278 -0.7584  2.0011 -0.9181
17620THY    CA427813   3.832   5.642   2.429 -0.4896 -0.0014  0.6182
17620THY    HA427814   3.934   5.678   2.439  0.0521  0.9243 -1.1066
17620THY    CA527815   3.730   5.702   2.498 -0.1312  0.2117 -0.3967
17620THY    CM127816   3.766   5.804   2.605  0.1940 -0.1251  0.1947
17620THY    HM127817   3.852   5.871   2.589 -0.1598  0.4816  0.8042
17620THY    HM227818   3.801   5.747   2.692  1.4442 -0.3964  0.5085
17620THY    HM327819   3.681   5.867   2.634 -1.7602  1.1525 -2.8237
17620THY    CA627820   3.599   5.664   2.485  0.0513  0.1249  0.3252
17620THY    HA627821   3.516   5.715   2.532 -0.8412 -0.0777 -0.8969
17621THY      O27822   0.292   5.956   3.631 -0.0114 -0.6384  0.0421
17621THY     HO27823   0.258   5.970   3.721 -1.1669 -0.7294 -1.7954
17621THY    CA127824   0.431   5.968   3.638 -0.6818  0.5033 -0.5011
17621THY    CA227825   0.505   5.973   3.515 -0.0204 -0.2387  0.4978
17621THY    CP127826   0.428   5.969   3.378 -0.4311  0.4957  0.1246
17621THY    HP127827   0.333   6.018   3.402 -0.0475  0.4644  0.8939
17621THY    CP227828   0.403   5.832   3.319 -0.3806  0.0086  0.1398
17621THY    HP227829   0.343   5.769   3.386  1.6572  0.2598 -1.6548
17621THY    HP327830   0.498   5.782   3.298 -1.2247 -0.2935 -1.4120
17621THY    HP427831   0.355   5.837   3.220  0.6170 -0.4437  0.8870
17621THY    CP327832   0.488   6.062   3.282 -0.3723 -0.1557  0.8152
17621THY    HP527833   0.422   6.060   3.194  0.6962 -0.9682 -0.2779
17621THY    HP627834   0.584   6.030   3.241 -1.2891 -0.8042 -1.3323
17621THY    HP727835   0.491   6.166   3.316 -2.5883  1.7798  0.3499
17621THY    CA327836   0.643   5.969   3.517 -0.0986  0.8876 -0.2724
17621THY    HA327837   0.705   5.969   3.428  0.4207  1.2382  0.2759
17621THY    CA427838   0.709   5.959   3.645 -0.1475  0.8674 -0.4424
17621THY    HA427839   0.817   5.952   3.646 -0.0157  1.5568  1.2002
17621THY    CA527840   0.638   5.965   3.767 -0.0983 -0.3463 -0.0596
17621THY    CM127841   0.701   5.953   3.903 -0.0646  0.1457 -0.1196
17621THY    HM127842   0.797   5.904   3.885 -0.2479 -0.9689 -0.0951
17621THY    HM227843   0.639   5.886   3.962  0.3482 -0.1763 -0.7954
17621THY    HM327844   0.720   6.045   3.959  0.8239  0.1901 -0.3233
17621THY    CA627845   0.498   5.974   3.759  0.5088  0.0573 -0.2146
17621THY    HA627846   0.441   5.979   3.851  0.8248  0.2226  0.7287
17622THY      O27847   1.476   7.948   6.796 -0.2387 -0.2309  0.0773
17622THY     HO27848   1.540   7.901   6.853 -1.8185  1.6256  0.0514
17622THY    CA127849   1.453   7.859   6.704 -0.1264 -0.7954 -0.0014
17622THY    CA227850   1.426   7.900   6.576  0.4079  0.1674 -0.0319
17622THY    CP127851   1.446   8.047   6.537  0.0430  1.1733 -0.6510
17622THY    HP127852   1.456   8.107   6.628 -0.9521  1.2203 -0.5356
17622THY    CP227853   1.323   8.095   6.451 -0.4906 -1.2935 -0.5992
17622THY    HP227854   1.317   8.204   6.440 -2.5253 -0.0578 -0.5346
17622THY    HP327855   1.236   8.067   6.511 -0.5264  0.4118  2.6581
17622THY    HP427856   1.317   8.044   6.354  1.0999 -1.6655 -0.1379
17622THY    CP327857   1.576   8.076   6.462  0.2633  0.3405  0.0869
17622THY    HP527858   1.586   8.185   6.458  0.0477 -0.3116  0.0826
17622THY    HP627859   1.595   8.031   6.364  0.9233 -0.3647  1.8163
17622THY    HP727860   1.650   8.036   6.533 -0.6388  0.2854 -1.7520
17622THY    CA327861   1.378   7.809   6.486 -0.2151  0.1551  0.8581
17622THY    HA327862   1.358   7.834   6.383 -0.3408 -0.2054 -0.6132
17622THY    CA427863   1.359   7.671   6.523  0.1598  0.2849 -0.2035
17622THY    HA427864   1.324   7.590   6.459 -1.1609  2.3964 -1.3972
17622THY    CA527865   1.382   7.633   6.654  0.2890 -0.3592 -0.1014
17622THY    CM127866   1.331   7.497   6.709 -0.3490  0.5418  0.3218
17622THY    HM127867   1.271   7.439   6.638  0.2481 -0.3126  0.7358
17622THY    HM227868   1.280   7.521   6.803 -1.4427 -0.4656  2.1867
17622THY    HM327869   1.411   7.426   6.733 -0.8082  1.3531  0.0640
17622THY    CA627870   1.437   7.724   6.743  0.5208  0.2895  0.5486
17622THY    HA627871   1.446   7.688   6.845  0.7335 -0.4773 -1.7363
17623THY      O27872   2.373   4.504   3.288  0.6480  0.3191  0.2169
17623THY     HO27873   2.295   4.548   3.250  2.0627 -1.9810  0.8733
17623THY    CA127874   2.353   4.470   3.414  0.1592 -0.5513  1.6284
17623THY    CA227875   2.450   4.393   3.484  0.2323 -0.0148 -0.1869
17623THY    CP127876   2.586   4.358   3.414 -1.5329 -0.0751  0.0785
17623THY    HP127877   2.580   4.381   3.307  1.8344 -0.1294  1.3076
17623THY    CP227878   2.630   4.216   3.438 -0.2558 -0.1255 -0.3279
17623THY    HP227879   2.697   4.197   3.523  0.8614 -1.4616 -3.0070
17623THY    HP327880   2.685   4.173   3.354  0.8827  0.7870 -0.7340
17623THY    HP427881   2.536   4.162   3.451 -0.2863 -1.3268 -0.5955
17623THY    CP327882   2.696   4.459   3.455  0.2773  0.5485 -0.3154
17623THY    HP527883   2.736   4.437   3.555 -0.0129  0.3556 -1.8112
17623THY    HP627884   2.644   4.555   3.457 -1.9380  2.7064 -1.4537
17623THY    HP727885   2.777   4.468   3.382 -0.8250 -0.4865  1.9758
17623THY    CA327886   2.423   4.354   3.622  0.3709  0.3989  0.2372
17623THY    HA327887   2.493   4.291   3.676 -0.1804  0.1126 -0.6326
17623THY    CA427888   2.297   4.373   3.673 -0.3166  0.0125  0.0486
17623THY    HA427889   2.271   4.339   3.773 -0.2106  0.2831  0.7445
17623THY    CA527890   2.198   4.431   3.597 -0.8635 -0.4138  0.3598
17623THY    CM127891   2.053   4.438   3.652  0.2560  0.0633  0.0386
17623THY    HM127892   2.018   4.541   3.668  0.7348  1.4869 -0.0063
17623THY    HM227893   2.037   4.381   3.744 -1.5644 -0.9975 -1.2368
17623THY    HM327894   1.982   4.389   3.584  0.6630  0.1637 -0.7092
17623THY    CA627895   2.231   4.489   3.472 -0.2630 -0.4661  0.3528
17623THY    HA627896   2.149   4.532   3.415 -1.9038  1.5411  0.0430
17624THY      O27897   7.594   8.723   5.736  0.0578  0.0715 -0.6597
17624THY     HO27898   7.605   8.629   5.757 -0.1407  3.1490 -0.1236
17624THY    CA127899   7.580   8.729   5.604 -0.3360  0.2293 -0.0956
17624THY    CA227900   7.652   8.817   5.525 -0.3326  0.1358  0.3968
17624THY    CP127901   7.742   8.922   5.584 -0.6463 -0.2959  0.0588
17624THY    HP127902   7.737   8.924   5.694  1.5369 -0.1552  0.2053
17624THY    CP227903   7.710   9.058   5.528  0.1982  0.1646  1.1184
17624THY    HP227904   7.793   9.123   5.558  1.1133  1.7928 -0.7044
17624THY    HP327905   7.630   9.104   5.587  0.6830 -0.0483  2.2751
17624THY    HP427906   7.677   9.052   5.424  0.5555  0.1350 -0.9461
17624THY    CP327907   7.889   8.897   5.540 -0.1135  0.5399  0.0989
17624THY    HP527908   7.952   8.979   5.574  1.8479 -0.9970 -0.6825
17624THY    HP627909   7.907   8.888   5.432 -1.2156  0.5003 -2.6151
17624THY    HP727910   7.923   8.800   5.579  1.0607 -0.4652  0.0769
17624THY    CA327911   7.646   8.801   5.380  0.6572  0.1980 -0.5890
17624THY    HA327912   7.697   8.860   5.304 -0.6062 -0.5412 -0.4178
17624THY    CA427913   7.561   8.702   5.323  0.1711 -0.0951 -0.4145
17624THY    HA427914   7.570   8.681   5.217 -0.6469 -0.1406 -0.5499
17624THY    CA527915   7.503   8.610   5.409  0.4187  0.0567 -0.4714
17624THY    CM127916   7.418   8.499   5.358 -0.2894  0.0199 -0.2554
17624THY    HM127917   7.339   8.466   5.426 -2.1154 -0.8748  2.0041
17624THY    HM227918   7.488   8.423   5.323  0.9967  1.5323  0.1698
17624THY    HM327919   7.361   8.528   5.269 -0.5801  0.2020 -0.2634
17624THY    CA627920   7.512   8.628   5.548  0.7174 -0.3117 -0.3356
17624THY    HA627921   7.473   8.544   5.605 -0.0228  0.9571  0.8300
17625THY      O27922   6.222   1.954   6.620 -0.0734  0.3948 -0.0294
17625THY     HO27923   6.312   1.949   6.655  0.4705 -0.4116  2.5228
17625THY    CA127924   6.187   2.078   6.661  0.9219 -0.0319 -0.4794
17625THY    CA227925   6.189   2.179   6.571  0.2527  0.2483  0.2340
17625THY    CP127926   6.230   2.154   6.423  0.1914 -0.7672  0.3542
17625THY    HP127927   6.291   2.063   6.423 -0.2559 -0.6281  0.0512
17625THY    CP227928   6.326   2.264   6.380  0.2961  0.0785  0.5393
17625THY    HP227929   6.374   2.233   6.286 -0.1673 -0.3512  1.1184
17625THY    HP327930   6.407   2.267   6.454 -0.2136  0.7532 -1.3459
17625THY    HP427931   6.275   2.357   6.352  2.5765 -0.1518  1.8099
17625THY    CP327932   6.111   2.137   6.329 -0.2358 -0.5720 -0.0050
17625THY    HP527933   6.151   2.086   6.240 -0.1428  0.3641 -1.6579
17625THY    HP627934   6.047   2.224   6.312 -0.7029 -0.1882 -0.2683
17625THY    HP727935   6.037   2.074   6.379 -0.5789  1.2488  1.7608
17625THY    CA327936   6.149   2.310   6.609  0.4388  0.0898  0.8220
17625THY    HA327937   6.166   2.394   6.543 -0.0743 -1.5899 -0.3561
17625THY    CA427938   6.112   2.330   6.742  0.2097 -0.0525  0.1216
17625THY    HA427939   6.091   2.431   6.777  2.0832  0.7433  0.2708
17625THY    CA527940   6.113   2.225   6.833  0.5482 -0.0045 -0.3979
17625THY    CM127941   6.065   2.254   6.971 -0.3177 -0.3318  0.8206
17625THY    HM127942   6.147   2.290   7.034 -0.0999 -0.3469  0.3632
17625THY    HM227943   6.021   2.168   7.024  1.9626  3.2810  1.6932
17625THY    HM327944   5.993   2.336   6.966  0.4769 -1.3007  1.4873
17625THY    CA627945   6.155   2.099   6.792 -0.2922  0.7025  0.0274
17625THY    HA627946   6.155   2.010   6.855  2.3828 -0.1984 -0.7317
17626THY      O27947   8.896   5.312   2.348 -0.4279 -0.4273 -0.3640
17626THY     HO27948   8.825   5.254   2.315 -1.3929  1.0989 -0.1144
17626THY    CA127949   9.014   5.256   2.306  0.8244  0.4636  0.9214
17626THY    CA227950   9.139   5.311   2.337  0.0368  1.0231 -0.0038
17626THY    CP127951   9.143   5.431   2.430 -0.4531  1.2858  0.2152
17626THY    HP127952   9.046   5.483   2.419 -0.5201 -1.4211 -0.3306
17626THY    CP227953   9.257   5.529   2.395 -0.0732 -0.1743  0.5274
17626THY    HP227954   9.273   5.556   2.290  2.2891 -0.8659 -2.7855
17626THY    HP327955   9.349   5.473   2.419 -0.9309 -1.4685 -1.5922
17626THY    HP427956   9.244   5.619   2.456  0.8146  1.9739 -0.6994
17626THY    CP327957   9.162   5.374   2.567 -0.5673  0.2402 -0.1566
17626THY    HP527958   9.169   5.455   2.641  1.0953  0.1685 -0.2128
17626THY    HP627959   9.262   5.329   2.576 -0.6127 -1.6462 -0.7040
17626THY    HP727960   9.082   5.311   2.608  0.4101  1.3343 -0.7368
17626THY    CA327961   9.248   5.252   2.280  0.2038 -0.0587 -0.3747
17626THY    HA327962   9.344   5.300   2.298  0.2865 -0.4917 -0.3771
17626THY    CA427963   9.247   5.133   2.221  0.4580  0.2331 -0.1067
17626THY    HA427964   9.339   5.085   2.189 -1.0786 -0.0765 -3.0477
17626THY    CA527965   9.122   5.071   2.191 -0.8449  0.2530 -0.4382
17626THY    CM127966   9.120   4.937   2.129  0.0847  0.7930  0.3862
17626THY    HM127967   9.211   4.914   2.072  0.3669  1.7331 -0.9031
17626THY    HM227968   9.039   4.942   2.055 -0.0485  0.7917 -1.3075
17626THY    HM327969   9.097   4.857   2.200  1.5877  1.3187  0.3902
17626THY    CA627970   9.009   5.138   2.228  0.1886 -0.7148  0.1938
17626THY    HA627971   8.912   5.091   2.218  0.5128 -0.7395 -0.4841
17627THY      O27972   5.353   4.570   7.847  0.4052 -0.4297 -0.0603
17627THY     HO27973   5.367   4.475   7.863  1.3684  0.6045  0.2323
17627THY    CA127974   5.223   4.590   7.814 -0.5427 -0.1381 -0.1601
17627THY    CA227975   5.163   4.715   7.787  0.3730 -0.5666  0.2543
17627THY    CP127976   5.249   4.843   7.776  0.0244  0.4540  0.3373
17627THY    HP127977   5.342   4.833   7.832  1.9972 -2.3598  1.7022
17627THY    CP227978   5.185   4.966   7.844 -0.0568  0.0556  0.4952
17627THY    HP227979   5.124   4.937   7.930 -0.4135 -1.1314 -2.6949
17627THY    HP327980   5.130   5.024   7.768  3.9679 -1.0689  3.3183
17627THY    HP427981   5.270   5.032   7.866  0.1209 -1.1181  0.6850
17627THY    CP327982   5.274   4.870   7.624  0.0063 -0.1443 -0.6546
17627THY    HP527983   5.183   4.848   7.568  0.3556 -2.5627  3.1938
17627THY    HP627984   5.354   4.806   7.585  0.9408  1.0249 -0.2628
17627THY    HP727985   5.287   4.977   7.601 -1.5475  1.4167 -0.0693
17627THY    CA327986   5.025   4.728   7.781 -0.6003 -0.6639  0.1070
17627THY    HA327987   4.976   4.825   7.771  1.3371  1.3115  1.3942
17627THY    CA427988   4.955   4.609   7.795  0.7165  0.2011 -0.0185
17627THY    HA427989   4.847   4.610   7.779  0.7596 -0.2920  2.2258
17627THY    CA527990   5.008   4.484   7.814  0.1686  0.6253 -0.0025
17627THY    CM127991   4.921   4.365   7.833 -0.8314  0.1346  0.2800
17627THY    HM127992   4.956   4.286   7.766 -3.2083 -2.6818  1.4493
17627THY    HM227993   4.815   4.385   7.813 -0.6906 -0.7983  0.1092
17627THY    HM327994   4.933   4.349   7.941  1.7303 -0.3441 -1.5876
17627THY    CA627995   5.148   4.472   7.824  0.3411  0.3034 -0.2055
17627THY    HA627996   5.191   4.375   7.849  0.6416  0.0854 -0.1302
17628THY      O27997   4.959   1.849   4.526  0.1786  0.7565  0.0033
17628THY     HO27998   4.962   1.845   4.623 -0.9492  0.7808 -0.7029
17628THY    CA127999   5.078   1.795   4.475 -0.0843 -0.3898  0.9042
17628THY    CA228000   5.102   1.779   4.333  0.3251  0.5024  0.0489
17628THY    CP128001   5.004   1.825   4.225 -0.2039 -0.4622 -0.6922
17628THY    HP128002   4.913   1.848   4.282 -0.0432 -0.6368  0.4302
17628THY    CP228003   4.960   1.709   4.132 -0.6166 -0.0658  0.3814
17628THY    HP228004   5.047   1.680   4.072 -0.2933  1.4212 -2.0577
17628THY    HP328005   4.886   1.752   4.064 -0.4279  0.4339  1.5276
17628THY    HP428006   4.929   1.628   4.199 -0.5519 -0.3475  0.1224
17628THY    CP328007   5.054   1.958   4.165  0.4910  0.0595  0.0919
17628THY    HP528008   4.984   2.042   4.156 -0.9152 -0.0472 -1.0661
17628THY    HP628009   5.131   1.930   4.092  0.1582 -0.4656  0.5489
17628THY    HP728010   5.118   2.006   4.241 -1.7884 -0.2348  4.0696
17628THY    CA328011   5.227   1.731   4.292 -0.5517  0.0593 -0.1500
17628THY    HA328012   5.247   1.732   4.185  0.9366  0.3151  0.8664
17628THY    CA428013   5.325   1.686   4.387  0.2600  0.5611 -0.3856
17628THY    HA428014   5.419   1.637   4.363  0.2017  1.8954 -1.1810
17628THY    CA528015   5.294   1.694   4.528  0.0400 -0.1386  0.4193
17628THY    CM128016   5.382   1.636   4.633 -0.1440 -0.3852  0.3916
17628THY    HM128017   5.381   1.682   4.732  1.0708  0.2926 -0.9504
17628THY    HM228018   5.480   1.633   4.584  0.3513  0.4535  1.8121
17628THY    HM328019   5.352   1.534   4.660  2.9601  0.7177 -0.3388
17628THY    CA628020   5.173   1.747   4.562 -0.2353 -0.5061 -0.4509
17628THY    HA628021   5.156   1.757   4.669  1.5159 -0.1742 -0.5733
17629THY      O28022   4.775   7.137   6.594  0.8124  0.4869  0.4075
17629THY     HO28023   4.778   7.234   6.605  3.0105 -1.6772  0.6760
17629THY    CA128024   4.900   7.093   6.621 -0.1877 -0.2103  0.2948
17629THY    CA228025   4.932   6.959   6.588 -0.3242 -0.5099  0.4190
17629THY    CP128026   4.820   6.865   6.539  0.2437  0.7611 -0.2562
17629THY    HP128027   4.730   6.921   6.512 -0.7688  0.3790 -2.0164
17629THY    CP228028   4.770   6.768   6.646 -0.2066  0.4885 -0.4087
17629THY    HP228029   4.779   6.833   6.734  3.1506  0.2634 -0.4100
17629THY    HP328030   4.841   6.685   6.652  1.6570 -0.8323  1.0180
17629THY    HP428031   4.673   6.716   6.645 -0.0855  2.9429 -0.8058
17629THY    CP328032   4.851   6.774   6.419  0.2659 -0.5694  0.0113
17629THY    HP528033   4.924   6.699   6.451  0.4266  2.1857  1.2214
17629THY    HP628034   4.892   6.842   6.343 -0.8840 -1.1746  0.0577
17629THY    HP728035   4.765   6.717   6.382 -0.8280  2.5720 -0.5906
17629THY    CA328036   5.072   6.914   6.597 -0.1355  0.4129  0.0067
17629THY    HA328037   5.107   6.815   6.568 -0.3930 -2.5699  0.6778
17629THY    CA428038   5.163   7.005   6.657  0.0720  0.1344  0.4187
17629THY    HA428039   5.264   6.971   6.674 -0.9933  1.0166 -2.6688
17629THY    CA528040   5.133   7.134   6.688 -0.5042 -0.9585 -0.1147
17629THY    CM128041   5.234   7.232   6.749  0.2653 -0.1202  0.0316
17629THY    HM128042   5.193   7.319   6.802  1.5958  4.0782 -1.6188
17629THY    HM228043   5.306   7.261   6.673 -0.1650  0.2750  2.3850
17629THY    HM328044   5.282   7.171   6.827 -1.8231 -0.0253 -1.6342
17629THY    CA628045   4.999   7.179   6.660 -0.7964  0.0742  0.3704
17629THY    HA628046   4.971   7.280   6.688 -1.7128  0.4000  0.0426
17630THY      O28047   6.270   3.734   5.824  0.2084 -0.1492 -0.3437
17630THY     HO28048   6.233   3.717   5.736 -0.2503  0.1271 -0.7902
17630THY    CA128049   6.355   3.628   5.842 -0.0332 -0.1292 -0.0414
17630THY    CA228050   6.392   3.592   5.977 -0.2390  0.0666 -0.5581
17630THY    CP128051   6.322   3.640   6.097  0.2247  0.0801 -0.5959
17630THY    HP128052   6.225   3.675   6.058  0.3310 -0.7137 -1.1671
17630THY    CP228053   6.396   3.764   6.155 -0.6615 -0.4888  0.5928
17630THY    HP228054   6.502   3.743   6.174 -0.5181 -0.7677  1.0248
17630THY    HP328055   6.350   3.801   6.247  0.9939  0.4077  0.5547
17630THY    HP428056   6.399   3.850   6.086  2.8878 -0.7970  0.3816
17630THY    CP328057   6.298   3.544   6.206 -0.0432 -0.2269 -0.1486
17630THY    HP528058   6.394   3.502   6.235  0.4478  0.1939  1.2108
17630THY    HP628059   6.233   3.464   6.170 -1.2766  1.1441  0.1981
17630THY    HP728060   6.247   3.590   6.291  0.2071  0.5409 -1.2703
17630THY    CA328061   6.493   3.488   5.983  0.4618 -0.6097  0.2081
17630THY    HA328062   6.526   3.459   6.082 -1.4385  0.3676  1.2253
17630THY    CA428063   6.530   3.413   5.867 -0.4212 -0.1836  0.2899
17630THY    HA428064   6.606   3.337   5.882 -0.1024 -1.7712  0.2696
17630THY    CA528065   6.485   3.456   5.736  0.0619  0.0526  0.9506
17630THY    CM128066   6.527   3.407   5.604 -0.0744  0.0305 -0.2671
17630THY    HM128067   6.613   3.341   5.622 -0.3803  2.0568 -0.1681
17630THY    HM228068   6.529   3.490   5.532  1.1371  1.1442  0.7308
17630THY    HM328069   6.452   3.340   5.561  1.7003  1.4446 -3.3855
17630THY    CA628070   6.403   3.567   5.731 -0.1465 -0.1970 -0.6688
17630THY    HA628071   6.381   3.608   5.632 -0.3654  1.1882  2.9797
17631THY      O28072   3.350   1.679   2.867  0.0870 -0.5484  0.6360
17631THY     HO28073   3.271   1.708   2.818  0.6124 -2.3087 -0.6948
17631THY    CA128074   3.343   1.542   2.861  0.2406 -0.4596  0.0108
17631THY    CA228075   3.453   1.462   2.883 -0.0214  0.1850  0.1541
17631THY    CP128076   3.595   1.529   2.908 -0.5203  0.0396 -0.1090
17631THY    HP128077   3.607   1.611   2.837 -3.1442 -0.0050  0.3044
17631THY    CP228078   3.712   1.439   2.873 -0.9436 -0.2668 -0.1608
17631THY    HP228079   3.716   1.404   2.769  0.9092 -0.1109 -0.5383
17631THY    HP328080   3.715   1.350   2.937 -0.0446  0.5449  0.4383
17631THY    HP428081   3.804   1.492   2.899 -0.8746  2.1499 -1.3493
17631THY    CP328082   3.612   1.575   3.056  0.0606  0.3855 -0.1905
17631THY    HP528083   3.714   1.614   3.063 -0.1430  0.4375  0.3447
17631THY    HP628084   3.603   1.493   3.128 -0.6228  1.9343  1.2029
17631THY    HP728085   3.530   1.641   3.087  0.1547  1.4757 -0.5732
17631THY    CA328086   3.430   1.324   2.878  0.0401 -0.5758  0.6532
17631THY    HA328087   3.509   1.254   2.901  0.1919  2.8314  1.7791
17631THY    CA428088   3.300   1.267   2.843  0.5995 -0.0966 -0.6463
17631THY    HA428089   3.281   1.160   2.838  0.1251 -0.5185 -0.5465
17631THY    CA528090   3.197   1.352   2.818 -0.2489  0.0882 -0.2668
17631THY    CM128091   3.068   1.302   2.760 -0.1530 -0.5963  0.3939
17631THY    HM128092   3.052   1.196   2.785  0.4466 -0.1903  0.3890
17631THY    HM228093   3.063   1.305   2.651  0.1576 -0.6689 -0.8579
17631THY    HM328094   2.984   1.361   2.799 -0.2369 -1.2360  0.7028
17631THY    CA628095   3.218   1.489   2.834  0.7698 -0.0125 -0.2427
17631THY    HA628096   3.138   1.556   2.805 -2.3183  0.6359 -3.3193
17632THY      O28097   5.347   6.299   6.715  0.0696  0.2778 -0.1481
17632THY     HO28098   5.281   6.353   6.669  0.8144  0.3965  0.8875
17632THY    CA128099   5.414   6.385   6.799 -0.0866  0.3760 -0.1026
17632THY    CA228100   5.527   6.351   6.869 -0.0892 -0.1643 -0.4383
17632THY    CP128101   5.582   6.208   6.871 -0.0196 -0.4746 -0.5107
17632THY    HP128102   5.529   6.150   6.795 -0.1356 -0.4934 -0.3780
17632THY    CP228103   5.557   6.140   7.012 -0.0738  0.2520 -0.3244
17632THY    HP228104   5.455   6.156   7.047 -0.2625  0.0815 -1.1177
17632THY    HP328105   5.641   6.155   7.082  2.5957 -2.6232 -0.7799
17632THY    HP428106   5.561   6.035   6.981 -2.5109  0.0333 -0.3951
17632THY    CP328107   5.732   6.207   6.834 -0.7040 -0.0599  0.2391
17632THY    HP528108   5.795   6.253   6.911  0.3750 -0.3926 -0.6414
17632THY    HP628109   5.754   6.261   6.742 -2.0776 -0.2510  0.5119
17632THY    HP728110   5.758   6.101   6.824  0.4103 -0.0643  0.5012
17632THY    CA328111   5.576   6.447   6.950 -0.9081  0.3563 -0.5647
17632THY    HA328112   5.662   6.430   7.014  0.3908 -0.9725  0.8164
17632THY    CA428113   5.531   6.577   6.953  0.1300 -0.1620  0.1072
17632THY    HA428114   5.581   6.644   7.022 -0.3988 -0.4931  0.8517
17632THY    CA528115   5.421   6.613   6.889 -0.2881  0.7580  0.7731
17632THY    CM128116   5.383   6.761   6.872  0.2951 -0.6571 -0.5566
17632THY    HM128117   5.460   6.832   6.905  0.2079  2.7494 -1.8328
17632THY    HM228118   5.296   6.786   6.933  1.0998  0.6361 -0.7907
17632THY    HM328119   5.364   6.786   6.767  1.2855 -0.6016  0.5109
17632THY    CA628120   5.354   6.513   6.808 -0.1131 -0.2503  0.5557
17632THY    HA628121   5.271   6.545   6.746  0.4268 -1.4662 -0.3149
17633THY      O28122   8.619   6.480   1.954 -0.0671 -0.0151 -0.1770
17633THY     HO28123   8.550   6.514   1.895 -0.8340  1.1495  0.3554
17633THY    CA128124   8.572   6.356   1.993  0.7191  0.5190 -0.6041
17633THY    CA228125   8.651   6.238   2.004 -0.1714 -0.0467 -0.0067
17633THY    CP128126   8.805   6.250   1.977  0.0550 -0.1331 -0.0562
17633THY    HP128127   8.830   6.355   1.993  0.0292  1.0521 -0.2220
17633THY    CP228128   8.831   6.210   1.832 -0.6826  0.0331 -0.4377
17633THY    HP228129   8.775   6.275   1.764 -1.0092 -0.5888 -1.3481
17633THY    HP328130   8.799   6.108   1.810  0.3056 -1.6000 -0.4176
17633THY    HP428131   8.935   6.233   1.805 -1.5669 -0.3447  3.8590
17633THY    CP328132   8.884   6.179   2.085  0.6605  0.1468 -0.1742
17633THY    HP528133   8.990   6.190   2.063  0.7023  0.7816  0.7873
17633THY    HP628134   8.864   6.071   2.081 -2.2696 -1.8195  0.3253
17633THY    HP728135   8.868   6.233   2.179  0.9390  0.2503 -0.2707
17633THY    CA328136   8.590   6.112   2.036  0.0972  0.5019 -0.0011
17633THY    HA328137   8.648   6.020   2.037  0.3324  0.1716  0.1428
17633THY    CA428138   8.448   6.114   2.053 -0.3603  0.2651 -0.4677
17633THY    HA428139   8.393   6.022   2.066 -1.4676  1.2508  0.2960
17633THY    CA528140   8.374   6.232   2.050 -0.2501  0.5572 -0.2490
17633THY    CM128141   8.227   6.231   2.063  0.4441 -0.0054 -0.8666
17633THY    HM128142   8.177   6.235   1.965  1.2114 -0.4021 -0.5420
17633THY    HM228143   8.191   6.320   2.117  0.4787 -0.3676 -0.6289
17633THY    HM328144   8.197   6.144   2.122 -0.4044  1.0908  0.1305
17633THY    CA628145   8.435   6.348   2.021  0.1261 -0.1069 -0.7191
17633THY    HA628146   8.374   6.437   2.011 -0.6962  1.7477 -1.0240
17634THY      O28147   2.810   1.948   4.069  0.1825 -0.1344 -0.3344
17634THY     HO28148   2.823   1.896   4.150  0.9156 -0.8764 -1.3591
17634THY    CA128149   2.883   2.066   4.086  0.9456  0.5357  0.5023
17634THY    CA228150   2.849   2.170   4.002 -0.1772  0.0646 -0.8893
17634THY    CP128151   2.751   2.159   3.889 -0.0166  0.4594  0.0224
17634THY    HP128152   2.762   2.062   3.839 -1.4559 -1.9513  1.0166
17634THY    CP228153   2.766   2.265   3.780 -0.6904  0.3594  0.3035
17634THY    HP228154   2.865   2.284   3.735 -1.7533 -2.2600  0.0581
17634THY    HP328155   2.728   2.353   3.832  0.2756  1.5133  0.0565
17634THY    HP428156   2.690   2.248   3.703 -0.0521 -0.0530 -0.7765
17634THY    CP328157   2.607   2.164   3.932  0.1716 -0.2815  0.3495
17634THY    HP528158   2.568   2.264   3.954  1.8140  1.7736  0.5955
17634THY    HP628159   2.590   2.117   4.030  0.7272  0.6236  1.9666
17634THY    HP728160   2.548   2.117   3.852  1.4960 -0.3340 -1.3018
17634THY    CA328161   2.922   2.291   4.026 -0.3790  0.4797  0.3187
17634THY    HA328162   2.910   2.383   3.970  0.3659 -2.5455 -1.2785
17634THY    CA428163   3.019   2.295   4.133 -0.4202  0.0950  0.8027
17634THY    HA428164   3.064   2.390   4.163  0.2270  0.6340  0.3392
17634THY    CA528165   3.031   2.187   4.218  0.5763  0.9692  0.6481
17634THY    CM128166   3.111   2.196   4.342  0.2412 -0.8557 -0.1485
17634THY    HM128167   3.111   2.294   4.392  1.2368  0.4195 -0.7724
17634THY    HM228168   3.214   2.190   4.305 -0.3271 -2.3845 -1.0852
17634THY    HM328169   3.083   2.123   4.419  0.0838 -0.4405  0.3326
17634THY    CA628170   2.975   2.068   4.185  0.8233  0.4273  0.2228
17634THY    HA628171   2.993   1.989   4.257  1.2412  2.5961  2.1838
17635THY      O28172   3.144   4.121   4.161  0.0682 -0.7070  0.5531
17635THY     HO28173   3.158   4.062   4.086  3.8920 -0.2084  0.6270
17635THY    CA128174   3.201   4.058   4.264  0.1680 -0.4496  0.3459
17635THY    CA228175   3.203   4.123   4.394 -0.3509  0.0720 -0.0521
17635THY    CP128176   3.144   4.264   4.406  0.3323 -0.1224 -0.5786
17635THY    HP128177   3.110   4.305   4.310  0.5591 -0.0754 -0.2798
17635THY    CP228178   3.252   4.367   4.457 -0.1099  0.6826  0.1318
17635THY    HP228179   3.305   4.320   4.540 -1.9148  1.3900 -0.7755
17635THY    HP328180   3.216   4.466   4.487  0.2412 -0.2126  0.5359
17635THY    HP428181   3.323   4.390   4.376  0.0415  0.9467  0.6010
17635THY    CP328182   3.026   4.251   4.507 -0.4719  0.2513 -0.1072
17635THY    HP528183   3.064   4.204   4.598  0.4417 -1.8706 -3.8928
17635THY    HP628184   2.936   4.210   4.461  0.7326  0.1902 -2.8964
17635THY    HP728185   3.001   4.356   4.531  0.2709 -0.2925  0.2019
17635THY    CA328186   3.279   4.054   4.493  0.2304 -0.1040 -0.2584
17635THY    HA328187   3.284   4.105   4.589 -0.3721 -0.7819  1.1350
17635THY    CA428188   3.330   3.930   4.472 -0.5261 -0.2406  0.3591
17635THY    HA428189   3.382   3.878   4.552  1.7456 -1.6710  0.2946
17635THY    CA528190   3.325   3.870   4.345 -0.2238 -0.0823  0.6756
17635THY    CM128191   3.383   3.731   4.320  0.0962 -0.2403 -0.6803
17635THY    HM128192   3.308   3.657   4.292 -0.8677 -1.1538  0.6005
17635THY    HM228193   3.435   3.688   4.407 -0.6732  1.0594  0.8949
17635THY    HM328194   3.456   3.730   4.238 -0.7997 -1.0922 -3.2486
17635THY    CA628195   3.265   3.940   4.241  0.0225 -0.8586  0.4508
17635THY    HA628196   3.265   3.893   4.144 -1.9841 -0.5386 -0.3075
17636THY      O28197   3.068   0.834   7.791  0.3418  0.0581 -0.3142
17636THY     HO28198   3.062   0.858   7.886  0.9640 -0.1008  0.5290
17636THY    CA128199   2.960   0.894   7.725 -0.7958  0.5489 -0.2206
17636THY    CA228200   2.883   0.826   7.626 -0.7028 -0.6853  0.2750
17636THY    CP128201   2.937   0.697   7.558  0.0282 -0.1426  0.0297
17636THY    HP128202   3.012   0.657   7.629  0.7174 -2.4410 -3.1337
17636THY    CP228203   3.001   0.704   7.415  0.6737 -0.1176  0.3299
17636THY    HP228204   3.062   0.614   7.398 -0.8444  0.8690 -0.9579
17636THY    HP328205   3.065   0.792   7.404  0.3630  0.3027  0.6146
17636THY    HP428206   2.925   0.713   7.336  0.4801 -0.5918 -3.5336
17636THY    CP328207   2.834   0.588   7.562  0.2492 -0.4427  0.7899
17636THY    HP528208   2.741   0.584   7.504 -0.5999  0.8638  0.8501
17636THY    HP628209   2.781   0.575   7.657 -2.5997 -1.9795  0.1362
17636THY    HP728210   2.889   0.496   7.539 -1.1450  0.4439 -0.3001
17636THY    CA328211   2.763   0.883   7.576 -0.0015 -0.3373 -0.3858
17636THY    HA328212   2.693   0.840   7.505 -1.6200  0.7441  0.3701
17636THY    CA428213   2.732   1.012   7.624  0.2927  0.6082  0.2192
17636THY    HA428214   2.635   1.048   7.590  0.7436 -2.8355 -1.4442
17636THY    CA528215   2.798   1.070   7.732  0.4061  0.1578  0.0932
17636THY    CM128216   2.754   1.193   7.794  0.0964 -0.3684 -0.2167
17636THY    HM128217   2.658   1.224   7.752 -0.5693  0.3293 -1.2988
17636THY    HM228218   2.832   1.270   7.786  0.2397 -1.2613 -0.4367
17636THY    HM328219   2.736   1.168   7.899  1.5098 -0.5875 -2.4349
17636THY    CA628220   2.911   1.011   7.780 -0.8136  0.1327 -0.0817
17636THY    HA628221   2.959   1.046   7.871  0.0648  0.3069 -1.6459
17637THY      O28222   1.414   2.914   5.354  0.3281  0.1871  0.0703
17637THY     HO28223   1.496   2.966   5.365 -0.0686 -0.2438  0.7941
17637THY    CA128224   1.432   2.805   5.275 -0.0055 -0.1100  0.3566
17637THY    CA228225   1.381   2.680   5.314 -0.7079 -0.6032  0.0405
17637THY    CP128226   1.290   2.652   5.436 -0.6956  0.1606 -0.3992
17637THY    HP128227   1.335   2.706   5.520  1.1911 -0.8289 -0.3450
17637THY    CP228228   1.301   2.508   5.491 -0.1020  0.2361 -0.3920
17637THY    HP228229   1.408   2.491   5.508  0.2815  0.4454  1.8572
17637THY    HP328230   1.273   2.449   5.402  2.0993 -3.3247  3.3883
17637THY    HP428231   1.230   2.492   5.572  1.4224  2.0185  1.3535
17637THY    CP328232   1.150   2.696   5.400  0.2205 -0.1846 -0.4135
17637THY    HP528233   1.153   2.806   5.397  0.7877 -0.3742 -0.4335
17637THY    HP628234   1.069   2.675   5.471 -1.0365 -1.2672  0.6358
17637THY    HP728235   1.119   2.670   5.299 -0.0953 -0.2133  0.0618
17637THY    CA328236   1.413   2.573   5.218 -0.1744 -0.2520  0.3639
17637THY    HA328237   1.362   2.478   5.232  1.6637 -0.4782 -0.6940
17637THY    CA428238   1.504   2.584   5.118 -0.5129 -0.9152  0.2578
17637THY    HA428239   1.529   2.497   5.057  1.6959  1.0390 -0.5821
17637THY    CA528240   1.562   2.704   5.097 -0.3305 -0.0378 -0.1889
17637THY    CM128241   1.677   2.708   4.998  0.3382  0.4550 -0.0651
17637THY    HM128242   1.759   2.642   5.030 -0.0981  2.6228  0.3461
17637THY    HM228243   1.722   2.808   5.002  1.0091 -0.3561 -0.3243
17637THY    HM328244   1.652   2.671   4.898  1.2156  0.5080 -0.8486
17637THY    CA628245   1.523   2.817   5.175  0.2526 -0.1085  1.0267
17637THY    HA628246   1.566   2.916   5.157  2.0280  0.1211  0.3469
17638THY      O28247   9.033   0.435   3.438  0.0966  0.3999 -0.0115
17638THY     HO28248   8.996   0.345   3.447  0.2010  0.3329 -0.0613
17638THY    CA128249   8.926   0.516   3.458 -0.0639 -0.0764 -0.0967
17638THY    CA228250   8.929   0.650   3.470 -0.0988 -0.0990 -0.0643
17638THY    CP128251   9.063   0.714   3.487  0.4943 -0.1300  0.3509
17638THY    HP128252   9.132   0.649   3.542  0.6188 -0.0170  0.5761
17638THY    CP228253   9.053   0.826   3.578  0.2956 -0.1512 -0.7956
17638THY    HP228254   8.986   0.819   3.664  0.0581 -0.4124 -1.8173
17638THY    HP328255   9.018   0.915   3.524 -1.9420  2.7964  0.2578
17638THY    HP428256   9.150   0.856   3.619  0.5477 -1.9835  1.1649
17638THY    CP328257   9.118   0.754   3.350  0.8190 -0.2061 -0.1789
17638THY    HP528258   9.154   0.670   3.289  0.7601 -0.9817  0.3534
17638THY    HP628259   9.196   0.829   3.367 -0.7931 -0.1127  1.5560
17638THY    HP728260   9.041   0.813   3.300  0.0917 -0.7296 -1.5195
17638THY    CA328261   8.806   0.723   3.476  0.1189  0.2934 -0.4945
17638THY    HA328262   8.807   0.830   3.494 -1.2008  1.0629 -0.5880
17638THY    CA428263   8.684   0.660   3.453  0.0835 -0.0641  0.1870
17638THY    HA428264   8.583   0.701   3.449  0.0394 -1.9404 -0.0324
17638THY    CA528265   8.686   0.522   3.436  0.2985 -0.1292 -0.1567
17638THY    CM128266   8.565   0.446   3.438  0.3014 -0.2841  0.7090
17638THY    HM128267   8.483   0.499   3.489  0.3387  1.0329 -0.4577
17638THY    HM228268   8.571   0.357   3.502 -2.1426  2.7412  2.5155
17638THY    HM328269   8.523   0.425   3.338  0.4479 -0.5938  1.8447
17638THY    CA628270   8.807   0.449   3.452 -0.0453 -0.3166 -0.0909
17638THY    HA628271   8.803   0.340   3.456 -0.6920  0.6334 -0.0464
17639THY      O28272   0.557   1.270   3.678 -0.2180 -0.5852  0.0928
17639THY     HO28273   0.554   1.211   3.601  1.4809  0.9834 -2.2693
17639THY    CA128274   0.620   1.194   3.757  0.2559 -0.4063  0.3935
17639THY    CA228275   0.652   1.229   3.892 -0.0637  0.5238 -0.1501
17639THY    CP128276   0.609   1.362   3.945 -0.5220  0.3811  0.5005
17639THY    HP128277   0.641   1.431   3.867  1.7463  3.8403  3.7599
17639THY    CP228278   0.701   1.413   4.067 -0.2432 -0.0728  0.6161
17639THY    HP228279   0.670   1.365   4.160  1.8670  0.5697  0.4055
17639THY    HP328280   0.695   1.522   4.078 -0.0712  1.7036  0.4786
17639THY    HP428281   0.808   1.393   4.049 -0.3315 -1.2164  1.0977
17639THY    CP328282   0.457   1.370   3.989  0.3940 -0.3584  0.0032
17639THY    HP528283   0.383   1.364   3.909 -1.0559  0.8523  0.8911
17639THY    HP628284   0.438   1.470   4.031 -1.0754 -0.9323 -0.0216
17639THY    HP728285   0.427   1.300   4.067 -3.4337 -2.7613 -1.3273
17639THY    CA328286   0.745   1.149   3.967  0.2173 -0.2342 -0.1228
17639THY    HA328287   0.778   1.174   4.067  2.5495 -1.0891  0.4692
17639THY    CA428288   0.788   1.038   3.902 -0.2275  0.2575 -0.5757
17639THY    HA428289   0.863   0.974   3.949  1.3487 -2.2804 -0.7351
17639THY    CA528290   0.744   1.002   3.772 -0.4000 -0.4963  0.2848
17639THY    CM128291   0.778   0.866   3.718  0.0769  0.8726  0.4860
17639THY    HM128292   0.723   0.847   3.625 -1.1021  1.5014  0.6830
17639THY    HM228293   0.735   0.803   3.797 -0.8419  0.8174  1.0180
17639THY    HM328294   0.887   0.858   3.708 -0.1794 -0.6784 -2.1302
17639THY    CA628295   0.662   1.075   3.699 -0.5324  0.6859 -0.1914
17639THY    HA628296   0.645   1.042   3.597  0.8176  0.6477 -0.8167
17640THY      O28297   8.968   2.064   6.013 -0.2162  0.7876  0.4793
17640THY     HO28298   9.053   2.085   5.970 -1.1036 -0.5079  1.6151
17640THY    CA128299   8.887   2.081   5.903 -0.3842 -0.6360 -0.2428
17640THY    CA228300   8.751   2.051   5.911 -0.3300  0.2694 -0.2055
17640THY    CP128301   8.689   1.976   6.029 -0.5175 -0.3995 -0.4234
17640THY    HP128302   8.748   1.999   6.119 -1.7920  0.2230  0.5752
17640THY    CP228303   8.697   1.825   5.995 -0.6504  0.0406 -0.9043
17640THY    HP228304   8.644   1.808   5.901 -0.3095 -1.1924  3.6829
17640THY    HP328305   8.661   1.760   6.076 -1.3678  0.7628  0.3410
17640THY    HP428306   8.803   1.806   5.974 -0.4485 -0.1577  0.3824
17640THY    CP328307   8.537   2.011   6.060 -0.6453  0.6464  0.5987
17640THY    HP528308   8.517   2.116   6.088 -0.6248 -0.9439  1.0441
17640THY    HP628309   8.500   1.939   6.134 -0.4775 -1.3070 -1.5871
17640THY    HP728310   8.470   1.988   5.977 -2.0235  1.6259  0.9668
17640THY    CA328311   8.672   2.083   5.797  0.3179  0.0951  0.4580
17640THY    HA328312   8.566   2.059   5.799  0.2543 -2.2382  0.3855
17640THY    CA428313   8.722   2.151   5.683 -0.0733 -0.2513 -0.8046
17640THY    HA428314   8.655   2.167   5.599 -3.3481  2.3834  0.4690
17640THY    CA528315   8.857   2.188   5.687  0.3033  0.0517  0.3398
17640THY    CM128316   8.912   2.253   5.567 -0.3680 -0.2247  0.5366
17640THY    HM128317   8.918   2.358   5.597 -0.2128  4.5536 -0.6139
17640THY    HM228318   8.846   2.251   5.480 -1.9936  0.9188  1.8351
17640THY    HM328319   9.009   2.214   5.534  0.9840  3.9726 -0.1936
17640THY    CA628320   8.944   2.152   5.791  0.1515  0.1462 -0.2386
17640THY    HA628321   9.047   2.186   5.797 -0.3718  0.9981  1.3224
17641THY      O28322   6.145   8.951   7.089  0.0644 -0.6257 -0.1354
17641THY     HO28323   6.238   8.951   7.062  1.0251  2.0385  2.9809
17641THY    CA128324   6.084   8.852   7.024 -0.3275  0.1004 -0.9298
17641THY    CA228325   5.990   8.762   7.075 -0.5229  0.1934 -1.2299
17641THY    CP128326   5.925   8.797   7.207  0.0836  0.0296 -0.4319
17641THY    HP128327   5.965   8.886   7.256  0.9876  0.7392 -1.2051
17641THY    CP228328   5.937   8.688   7.304 -0.3060 -0.2106 -0.4247
17641THY    HP228329   5.928   8.590   7.254 -1.1322  1.0110 -0.9993
17641THY    HP328330   5.878   8.699   7.396  2.0804  1.1397  2.4721
17641THY    HP428331   6.041   8.700   7.334 -0.3277 -0.8151  1.6900
17641THY    CP328332   5.775   8.829   7.178  0.0108  0.6769  0.5044
17641THY    HP528333   5.755   8.902   7.098 -1.5756  1.6437  1.1952
17641THY    HP628334   5.732   8.863   7.273  1.1912  1.2460  0.4636
17641THY    HP728335   5.723   8.737   7.148 -0.7705  0.1183  1.1196
17641THY    CA328336   5.929   8.663   7.001  0.1569  0.0954 -0.0714
17641THY    HA328337   5.859   8.598   7.052  1.0223  3.1475  1.2266
17641THY    CA428338   5.967   8.643   6.867  0.9899  0.4980 -0.0723
17641THY    HA428339   5.926   8.561   6.809  0.4565  0.0819  0.4825
17641THY    CA528340   6.071   8.722   6.816 -0.3123 -0.3422  0.1060
17641THY    CM128341   6.109   8.691   6.681 -0.8276  0.7657  0.4333
17641THY    HM128342   6.032   8.712   6.606  2.4422 -3.4600 -1.3430
17641THY    HM228343   6.128   8.584   6.672  0.9907  3.0775  0.4757
17641THY    HM328344   6.198   8.742   6.642  0.5585  0.2996 -2.1662
17641THY    CA628345   6.134   8.822   6.892 -0.1423 -0.2601  0.2926
17641THY    HA628346   6.219   8.873   6.847  1.3174  0.8077 -1.1002
17642THY      O28347   5.254   1.803   3.213 -0.7215  0.0412 -0.1059
17642THY     HO28348   5.345   1.768   3.217 -0.2543 -0.7024  0.9660
17642THY    CA128349   5.265   1.906   3.127 -0.4053  0.4297  0.3101
17642THY    CA228350   5.249   2.037   3.169  0.8073 -0.8491 -0.6524
17642THY    CP128351   5.211   2.076   3.314  0.3821  0.1048  0.1873
17642THY    HP128352   5.174   1.991   3.372  1.6923  1.2313  0.3444
17642THY    CP228353   5.086   2.165   3.313  0.2405  0.2405 -0.3117
17642THY    HP228354   4.999   2.115   3.267 -1.5204  0.7089  2.1568
17642THY    HP328355   5.107   2.259   3.261 -0.5168 -0.6858 -0.6376
17642THY    HP428356   5.053   2.198   3.412  0.6787  1.3696 -2.9722
17642THY    CP328357   5.316   2.140   3.395 -0.7557 -0.5782  0.3997
17642THY    HP528358   5.301   2.149   3.503 -2.8644 -0.7729 -0.2687
17642THY    HP628359   5.332   2.239   3.352 -1.4329  0.2579  0.8839
17642THY    HP728360   5.411   2.087   3.380 -0.9478  1.6800 -0.6953
17642THY    CA328361   5.257   2.136   3.071 -0.2149  0.8072 -0.0585
17642THY    HA328362   5.243   2.241   3.094 -3.1746 -2.4600  0.4636
17642THY    CA428363   5.266   2.100   2.935 -0.0491 -0.2528  0.7073
17642THY    HA428364   5.276   2.175   2.857 -0.1871 -1.0207 -0.0592
17642THY    CA528365   5.276   1.960   2.902  0.1780  0.2028  0.5986
17642THY    CM128366   5.307   1.912   2.763  0.4700 -0.3618 -0.0768
17642THY    HM128367   5.258   1.815   2.746 -3.1413  1.0735  1.3229
17642THY    HM228368   5.415   1.915   2.744  0.7187  0.9619  0.2137
17642THY    HM328369   5.250   1.983   2.702 -1.1998  0.4877 -0.6218
17642THY    CA628370   5.278   1.863   2.999  0.1537 -1.0665  0.4781
17642THY    HA628371   5.269   1.758   2.970  0.5432  2.3473 -0.5961
17643THY      O28372   1.643   5.908   6.595 -0.1779  0.3679  0.0934
17643THY     HO28373   1.664   5.854   6.517 -2.9087 -1.2178  1.0839
17643THY    CA128374   1.605   6.029   6.549 -1.0095  0.3210  1.1664
17643THY    CA228375   1.568   6.128   6.633 -0.3606 -0.3427 -0.2614
17643THY    CP128376   1.549   6.115   6.782 -0.6482 -0.8534  0.3452
17643THY    HP128377   1.590   6.017   6.808 -0.1221 -1.2107  0.4633
17643THY    CP228378   1.411   6.120   6.833 -0.0427  0.4985  0.3424
17643THY    HP228379   1.358   6.204   6.786 -0.2397  0.8233  0.4029
17643THY    HP328380   1.407   6.120   6.943 -0.1674  0.5265 -1.4347
17643THY    HP428381   1.357   6.034   6.791 -1.3151  2.1349  0.2795
17643THY    CP328382   1.650   6.208   6.857  0.2215  0.1506  0.2854
17643THY    HP528383   1.673   6.176   6.959  0.3256 -0.6873 -2.5472
17643THY    HP628384   1.615   6.312   6.863  1.1344  1.8325  0.5279
17643THY    HP728385   1.747   6.209   6.808  0.0612 -0.1854  1.5012
17643THY    CA328386   1.535   6.254   6.583 -0.2171  0.3578 -0.2391
17643THY    HA328387   1.502   6.338   6.643  0.3736  2.9900 -1.7752
17643THY    CA428388   1.529   6.267   6.447 -0.0919  0.1704  0.3179
17643THY    HA428389   1.508   6.363   6.401 -3.5025  1.5619  0.3479
17643THY    CA528390   1.550   6.161   6.360 -0.0783  0.1902 -0.7554
17643THY    CM128391   1.534   6.179   6.212 -0.7382  0.2819 -0.1208
17643THY    HM128392   1.611   6.248   6.177  2.2387 -1.5941 -4.0229
17643THY    HM228393   1.432   6.219   6.198  0.2911  1.1676  3.1031
17643THY    HM328394   1.545   6.083   6.160 -1.6459  2.2386 -1.3484
17643THY    CA628395   1.605   6.048   6.412  0.0244 -0.1796 -0.3617
17643THY    HA628396   1.633   5.968   6.344  2.8630  0.5547 -0.1105
17644THY      O28397   5.174   6.789   5.736  0.7278 -0.2942  0.0255
17644THY     HO28398   5.146   6.877   5.766 -1.4499 -3.2289  0.4839
17644THY    CA128399   5.102   6.700   5.797 -0.0813  0.2432 -0.0541
17644THY    CA228400   5.125   6.560   5.794  0.3618  0.5673  0.9636
17644THY    CP128401   5.256   6.503   5.741  0.2432  0.3718  0.8010
17644THY    HP128402   5.305   6.575   5.675 -2.4648 -1.4974  1.0736
17644THY    CP228403   5.249   6.368   5.669  0.0585 -0.1961  0.7332
17644THY    HP228404   5.153   6.342   5.622 -0.6753  1.3244  0.5530
17644THY    HP328405   5.273   6.287   5.740 -1.5382 -0.7196 -0.2508
17644THY    HP428406   5.326   6.350   5.594 -0.6853 -0.2468 -3.1061
17644THY    CP328407   5.343   6.492   5.865  0.9373 -0.2466  0.7963
17644THY    HP528408   5.288   6.437   5.942 -2.4150 -1.4033  2.2678
17644THY    HP628409   5.355   6.592   5.905  3.5272 -0.7569  0.7570
17644THY    HP728410   5.440   6.441   5.852  0.9072  2.0158  0.0748
17644THY    CA328411   5.033   6.468   5.853 -0.2146 -0.4112  0.1196
17644THY    HA328412   5.056   6.363   5.863 -0.9801  0.3198  0.0047
17644THY    CA428413   4.915   6.523   5.913  0.5138  0.3161  0.8712
17644THY    HA428414   4.854   6.452   5.968 -0.8322 -2.3443 -0.1820
17644THY    CA528415   4.884   6.658   5.902  0.0089  0.5408 -0.6344
17644THY    CM128416   4.758   6.704   5.967  0.2280 -0.1583  0.0864
17644THY    HM128417   4.766   6.694   6.076  1.3850 -0.2178  0.1852
17644THY    HM228418   4.671   6.645   5.937 -0.0315  1.7584 -0.5975
17644THY    HM328419   4.733   6.807   5.939  0.2520 -0.8325 -0.0893
17644THY    CA628420   4.977   6.747   5.838  0.2192  0.7012  0.5482
17644THY    HA628421   4.944   6.851   5.834 -2.1976 -1.8759 -0.1940
17645THY      O28422   8.774   1.407   5.706 -0.2044 -0.3029 -0.0723
17645THY     HO28423   8.804   1.443   5.621  0.5721 -0.3884 -0.9003
17645THY    CA128424   8.779   1.274   5.676 -0.1205  0.4635 -0.2315
17645THY    CA228425   8.730   1.177   5.774 -0.1016 -0.4222  0.0417
17645THY    CP128426   8.685   1.223   5.913  0.1444  0.5359 -0.4876
17645THY    HP128427   8.676   1.332   5.925 -1.1253 -0.2309 -0.4943
17645THY    CP228428   8.786   1.173   6.023  0.3915 -0.4336  0.1493
17645THY    HP228429   8.886   1.214   6.002  0.3306 -3.4756 -0.9829
17645THY    HP328430   8.794   1.064   6.019  0.8135 -1.6431  0.2072
17645THY    HP428431   8.757   1.187   6.128  0.1822 -0.3306 -0.9602
17645THY    CP328432   8.540   1.175   5.943  0.4511 -0.0194 -0.2736
17645THY    HP528433   8.529   1.066   5.937 -2.2801 -1.5957 -0.0041
17645THY    HP628434   8.473   1.220   5.869 -1.7604  3.2226  2.3329
17645THY    HP728435   8.502   1.217   6.037 -0.5973 -0.2763 -0.6208
17645THY    CA328436   8.735   1.042   5.744 -0.0122 -0.3569 -0.3252
17645THY    HA328437   8.699   0.970   5.818 -1.1703  0.5684  1.1268
17645THY    CA428438   8.784   0.997   5.616 -0.2551  0.3337 -0.1390
17645THY    HA428439   8.789   0.893   5.588 -1.4655 -2.2216  0.3971
17645THY    CA528440   8.827   1.092   5.525  0.5338  0.2743  0.0174
17645THY    CM128441   8.866   1.057   5.384  0.8149  0.4951 -0.2098
17645THY    HM128442   8.817   0.963   5.356 -1.2907  0.5700  0.8035
17645THY    HM228443   8.973   1.057   5.360  0.5083 -0.9793 -1.0095
17645THY    HM328444   8.819   1.122   5.309  1.1885 -0.8372 -1.4182
17645THY    CA628445   8.829   1.229   5.556  0.7462  0.5771  0.3689
17645THY    HA628446   8.847   1.297   5.473 -0.3172 -0.2047 -0.2686
17646THY      O28447   8.916   5.752   4.239  0.1232  0.0001 -0.3533
17646THY     HO28448   8.979   5.801   4.184  0.2158  2.6920  2.9187
17646THY    CA128449   8.800   5.825   4.231 -0.1390 -0.1995  0.5422
17646THY    CA228450   8.681   5.775   4.280  1.6073 -0.4395 -0.0104
17646THY    CP128451   8.671   5.652   4.373  0.2782  0.3942 -0.4580
17646THY    HP128452   8.773   5.615   4.388  1.6854 -0.7550  2.6204
17646THY    CP228453   8.588   5.539   4.309  0.0684  0.1757  0.4547
17646THY    HP228454   8.481   5.561   4.309  0.2958 -0.9486  1.6577
17646THY    HP328455   8.619   5.444   4.355  1.4466 -0.3928  0.6019
17646THY    HP428456   8.611   5.533   4.202 -2.5589 -0.5896  2.5737
17646THY    CP328457   8.615   5.686   4.512 -0.0313  0.8118  0.6314
17646THY    HP528458   8.529   5.754   4.519 -0.4319 -2.8613  0.6924
17646THY    HP628459   8.702   5.728   4.563 -0.3955  2.4801 -0.5253
17646THY    HP728460   8.589   5.595   4.568 -0.5258 -1.6613 -0.8377
17646THY    CA328461   8.567   5.853   4.250  0.6025 -0.6935 -0.5276
17646THY    HA328462   8.472   5.821   4.291  0.5811 -0.9114 -0.7399
17646THY    CA428463   8.578   5.982   4.186  0.2626 -0.3928 -0.0593
17646THY    HA428464   8.492   6.049   4.182  0.3521  0.5490  0.1317
17646THY    CA528465   8.700   6.023   4.134 -0.4507 -1.2700 -0.0092
17646THY    CM128466   8.708   6.153   4.056  0.6050  0.5179 -0.0162
17646THY    HM128467   8.735   6.130   3.952  1.7313  0.7772  0.0732
17646THY    HM228468   8.790   6.211   4.100 -0.2683 -0.6758  2.2273
17646THY    HM328469   8.616   6.212   4.056  1.7052 -1.0078  1.8058
17646THY    CA628470   8.813   5.943   4.155  0.7428  0.0216  0.2368
17646THY    HA628471   8.912   5.970   4.119  0.4149 -3.0079 -2.0114
17647THY      O28472   4.447   1.247   4.508 -0.2325  0.2019  0.0788
17647THY     HO28473   4.539   1.255   4.539 -0.1446  0.2968 -1.0451
17647THY    CA128474   4.438   1.310   4.387 -0.0363 -0.8189 -0.2735
17647THY    CA228475   4.336   1.279   4.292  0.3898  0.1937 -0.0124
17647THY    CP128476   4.240   1.162   4.316  0.8019  0.4378  0.2464
17647THY    HP128477   4.250   1.135   4.422  1.7212 -0.5435 -3.9918
17647THY    CP228478   4.282   1.047   4.228  0.3383  0.4591  0.3944
17647THY    HP228479   4.267   1.084   4.126 -0.5656  1.6137  3.4494
17647THY    HP328480   4.212   0.963   4.231 -1.7565 -1.5400  1.9463
17647THY    HP428481   4.382   1.011   4.255  0.0561  2.0723  0.7551
17647THY    CP328482   4.087   1.199   4.300  0.2859  0.2528  0.1416
17647THY    HP528483   4.065   1.226   4.196  1.5927  0.6634  3.1908
17647THY    HP628484   4.065   1.293   4.351 -2.8563 -1.2135  0.3324
17647THY    HP728485   4.020   1.125   4.344 -0.5202  1.4808  1.5547
17647THY    CA328486   4.331   1.349   4.169 -0.3806 -0.1331 -0.4098
17647THY    HA328487   4.254   1.316   4.100 -0.1262 -0.9301  0.5887
17647THY    CA428488   4.416   1.461   4.148 -0.1619  0.6223  0.7942
17647THY    HA428489   4.413   1.515   4.054  0.9154 -0.2303 -0.5530
17647THY    CA528490   4.513   1.491   4.249  0.2596  0.2939 -0.0787
17647THY    CM128491   4.611   1.608   4.237 -0.2515  0.0805  0.0730
17647THY    HM128492   4.551   1.699   4.244  1.2300  1.7731  0.9891
17647THY    HM228493   4.648   1.610   4.134  2.5833  0.9760 -0.8607
17647THY    HM328494   4.694   1.613   4.308 -0.4609  0.6852 -3.2128
17647THY    CA628495   4.525   1.420   4.368  0.9826 -0.0228 -0.5970
17647THY    HA628496   4.596   1.453   4.444 -0.5844  1.8266 -1.2744
17648THY      O28497   8.859   3.871   7.627  0.2188 -0.0505  0.4314
17648THY     HO28498   8.776   3.885   7.579  1.3550 -1.5549  2.8354
17648THY    CA128499   8.943   3.826   7.522  1.0021 -0.2503  0.2496
17648THY    CA228500   9.056   3.744   7.537  0.1084 -0.3642  0.2558
17648THY    CP128501   9.089   3.684   7.667 -0.6554 -0.2946 -1.2752
17648THY    HP128502   9.008   3.711   7.736  0.5753  1.0982 -1.0040
17648THY    CP228503   9.213   3.745   7.730 -0.0342  0.3412  0.2716
17648THY    HP228504   9.303   3.707   7.680 -1.5127 -1.4713 -0.9973
17648THY    HP328505   9.223   3.719   7.836 -0.9987  0.4733  0.3894
17648THY    HP428506   9.210   3.855   7.739  0.4550  0.8500  0.2525
17648THY    CP328507   9.103   3.534   7.680 -0.7062  0.0580 -0.1224
17648THY    HP528508   9.095   3.503   7.785 -1.3754  0.3034  0.8608
17648THY    HP628509   9.197   3.502   7.633 -1.4077 -0.5075 -1.4580
17648THY    HP728510   9.026   3.486   7.619  0.5593 -2.4088  0.7869
17648THY    CA328511   9.124   3.709   7.421  0.0135 -0.1295 -0.5845
17648THY    HA328512   9.188   3.622   7.430 -1.0835  0.1228 -1.3746
17648THY    CA428513   9.091   3.765   7.295  0.0209 -0.4825 -0.0924
17648THY    HA428514   9.149   3.738   7.207 -0.6234 -1.1987  0.7884
17648THY    CA528515   8.980   3.840   7.285  0.4467  0.2312  0.5451
17648THY    CM128516   8.933   3.888   7.155 -0.2889  0.9695 -1.2479
17648THY    HM128517   8.828   3.861   7.139 -0.4316  1.4245 -0.9596
17648THY    HM228518   8.994   3.841   7.076  1.0880  1.6159 -0.5937
17648THY    HM328519   8.941   3.997   7.149 -2.0014  1.8543 -1.0416
17648THY    CA628520   8.906   3.867   7.397  0.2592 -0.1798 -0.3052
17648THY    HA628521   8.828   3.942   7.385  1.5060 -1.5528  0.8197
17649THY      O28522   8.210   2.026   1.876  0.3793 -0.0436 -0.3611
17649THY     HO28523   8.238   2.119   1.884  0.0378 -0.4157 -0.2244
17649THY    CA128524   8.231   1.971   2.001  0.6126 -0.2420  0.1752
17649THY    CA228525   8.163   1.860   2.058  0.5398 -0.5779  0.3437
17649THY    CP128526   8.058   1.779   1.979 -0.5645  0.1486  0.1755
17649THY    HP128527   8.055   1.818   1.877  3.4980  0.2455  1.1634
17649THY    CP228528   7.915   1.791   2.048 -0.1226  0.6210  0.2786
17649THY    HP228529   7.829   1.759   1.989  1.1732 -0.7751 -0.7471
17649THY    HP328530   7.902   1.899   2.065 -3.2632  1.5470 -0.1472
17649THY    HP428531   7.912   1.749   2.149 -1.1181 -0.9032 -3.7450
17649THY    CP328532   8.113   1.638   1.949  0.3279 -0.4331  0.1258
17649THY    HP528533   8.116   1.569   2.034  0.6953 -0.2886  0.3197
17649THY    HP628534   8.216   1.637   1.910  0.6165  0.0562 -3.2459
17649THY    HP728535   8.042   1.587   1.883 -0.6125  0.3642  0.3756
17649THY    CA328536   8.196   1.807   2.187 -0.2268  0.5205  0.1386
17649THY    HA328537   8.156   1.711   2.218 -0.3465  1.4570  0.4839
17649THY    CA428538   8.290   1.878   2.264 -0.6001  1.2179 -0.6133
17649THY    HA428539   8.317   1.836   2.361 -1.3549  0.3277 -3.3457
17649THY    CA528540   8.365   1.981   2.208 -0.1356 -0.1537  1.1744
17649THY    CM128541   8.475   2.044   2.292  0.1914 -0.4935  0.2842
17649THY    HM128542   8.435   2.059   2.392  3.4676  0.8424  1.0819
17649THY    HM228543   8.498   2.146   2.259  1.4918 -1.5366 -0.3100
17649THY    HM328544   8.563   1.979   2.295  0.1386 -2.0570  0.1020
17649THY    CA628545   8.335   2.023   2.080 -0.8960 -0.0230 -0.6637
17649THY    HA628546   8.385   2.110   2.038 -1.1167 -1.1557 -1.0676
17650THY      O28547   3.595   8.386   2.641  0.4815  0.0762 -0.2334
17650THY     HO28548   3.639   8.413   2.558 -1.3943 -1.0535 -0.4129
17650THY    CA128549   3.598   8.493   2.727  0.2829 -0.5986 -0.2104
17650THY    CA228550   3.495   8.509   2.820  1.8847 -0.5443 -0.0636
17650THY    CP128551   3.378   8.407   2.851 -0.1577  0.4639 -0.3895
17650THY    HP128552   3.369   8.347   2.760 -1.9516  1.5524 -1.8341
17650THY    CP228553   3.243   8.475   2.882 -0.2226  0.0303  0.0241
17650THY    HP228554   3.206   8.526   2.793 -0.9337 -0.7658 -1.7932
17650THY    HP328555   3.246   8.538   2.972  0.5785 -0.4079  0.6247
17650THY    HP428556   3.175   8.391   2.899 -0.8437 -1.7037  0.1401
17650THY    CP328557   3.412   8.326   2.974  0.6940  0.7038  0.5264
17650THY    HP528558   3.498   8.261   2.954  0.1537 -0.4974  0.1520
17650THY    HP628559   3.330   8.262   3.008  0.4517 -0.1978  0.3343
17650THY    HP728560   3.447   8.400   3.047  2.1783  0.6544 -0.0802
17650THY    CA328561   3.500   8.622   2.900  0.1025 -0.0783  0.1131
17650THY    HA328562   3.430   8.629   2.982  1.6171  1.5044 -2.0402
17650THY    CA428563   3.589   8.723   2.887 -0.5422 -0.6551 -0.0670
17650THY    HA428564   3.588   8.810   2.952  1.5838 -2.0650  1.1173
17650THY    CA528565   3.683   8.711   2.785 -0.5104 -0.3186 -0.1521
17650THY    CM128566   3.792   8.813   2.756 -0.2641 -0.4432 -0.1733
17650THY    HM128567   3.894   8.774   2.752  2.0047 -0.8029  5.1018
17650THY    HM228568   3.786   8.896   2.827  2.8003 -0.5983  0.2777
17650THY    HM328569   3.780   8.843   2.651 -3.0420 -0.4866 -1.0677
17650THY    CA628570   3.696   8.587   2.713  0.0930  0.5071  0.1872
17650THY    HA628571   3.772   8.578   2.636  1.3556  1.6044  1.0788
17651THY      O28572   1.638   1.456   5.321  0.7371 -1.1464 -0.4437
17651THY     HO28573   1.597   1.541   5.346 -0.6641  1.6902 -1.7889
17651THY    CA128574   1.648   1.385   5.440  0.3468  0.1120 -0.5448
17651THY    CA228575   1.632   1.245   5.442  0.3242 -0.4441 -0.0365
17651THY    CP128576   1.603   1.171   5.309 -0.9615 -0.0985 -0.0867
17651THY    HP128577   1.597   1.235   5.221  2.1423  0.3743  0.9946
17651THY    CP228578   1.470   1.103   5.320 -0.6980  0.5908  0.9108
17651THY    HP228579   1.389   1.177   5.324 -0.5426 -0.6227  1.1537
17651THY    HP328580   1.463   1.033   5.405 -0.8569  0.0177  0.2166
17651THY    HP428581   1.458   1.061   5.219  1.5801  0.1008  1.3503
17651THY    CP328582   1.703   1.066   5.282 -0.0444  0.5728  0.6372
17651THY    HP528583   1.680   0.980   5.346 -0.5606 -0.0339  0.3125
17651THY    HP628584   1.811   1.080   5.297  0.7123 -1.0101 -2.4289
17651THY    HP728585   1.696   1.019   5.183  0.2650  1.4280 -1.3294
17651THY    CA328586   1.652   1.176   5.564 -0.0613  0.1364  0.2832
17651THY    HA328587   1.664   1.069   5.567  1.0975 -0.2442  0.3858
17651THY    CA428588   1.679   1.251   5.678  0.2331 -0.4257  0.2032
17651THY    HA428589   1.690   1.198   5.772 -1.3104 -0.6247 -0.5312
17651THY    CA528590   1.708   1.391   5.677 -0.1953  0.4159 -0.0838
17651THY    CM128591   1.771   1.457   5.796 -0.5494 -0.6588  0.0657
17651THY    HM128592   1.705   1.475   5.881  0.9136  1.1352 -2.4818
17651THY    HM228593   1.823   1.551   5.773  1.6927  2.3604 -0.2770
17651THY    HM328594   1.841   1.385   5.840 -2.9409 -1.1693 -2.7166
17651THY    CA628595   1.691   1.461   5.554  0.2656  0.2684  0.0950
17651THY    HA628596   1.712   1.566   5.539  0.5766  0.1762  0.0187
17652THY      O28597   7.629   7.450   3.704  0.2830 -0.1328  0.1958
17652THY     HO28598   7.578   7.443   3.622 -0.6101  0.5238 -2.6432
17652THY    CA128599   7.699   7.334   3.721  0.2393  0.1465 -0.3314
17652THY    CA228600   7.813   7.320   3.809 -0.5972  0.3735  0.1291
17652THY    CP128601   7.859   7.441   3.891 -0.0626 -0.2421  0.1228
17652THY    HP128602   7.824   7.530   3.836  3.0695 -0.3761  1.3760
17652THY    CP228603   8.011   7.465   3.891 -0.0420 -0.0150  0.3721
17652THY    HP228604   8.051   7.384   3.954 -1.9613 -1.5635 -1.9369
17652THY    HP328605   8.043   7.566   3.919 -0.9891 -1.4503  1.1024
17652THY    HP428606   8.054   7.443   3.793  1.9654  0.8054  0.4379
17652THY    CP328607   7.813   7.437   4.032  0.4820 -0.2957 -0.0032
17652THY    HP528608   7.876   7.383   4.104  1.9834  0.2489  2.3319
17652THY    HP628609   7.706   7.413   4.030  0.5951 -4.3629 -0.8988
17652THY    HP728610   7.828   7.538   4.072  0.4035 -0.6892  0.1652
17652THY    CA328611   7.882   7.200   3.819 -0.4110  0.3396  0.5361
17652THY    HA328612   7.976   7.197   3.873 -1.5017  2.3203 -2.8185
17652THY    CA428613   7.845   7.093   3.734 -0.0065  0.6597  0.5193
17652THY    HA428614   7.897   6.997   3.733 -0.9196 -3.6351 -0.1305
17652THY    CA528615   7.726   7.106   3.657  0.4031 -1.1099  0.0362
17652THY    CM128616   7.681   6.999   3.564  0.4721  0.1851 -0.4549
17652THY    HM128617   7.741   6.909   3.582 -0.2659 -0.5063 -1.0997
17652THY    HM228618   7.690   7.025   3.458 -0.8837  0.5441  1.7564
17652THY    HM328619   7.578   6.972   3.592 -0.0453 -0.5307  0.6701
17652THY    CA628620   7.656   7.227   3.658  0.1113  0.2355  0.6153
17652THY    HA628621   7.562   7.236   3.605  0.5065 -0.9762 -1.5940
17653THY      O28622   1.477   5.455   3.913  0.0627  0.2271  0.4073
17653THY     HO28623   1.489   5.504   3.830 -1.1798 -0.3663 -0.2583
17653THY    CA128624   1.541   5.339   3.875  0.3449  0.1546 -0.3270
17653THY    CA228625   1.491   5.209   3.900 -0.1955  0.9694  0.1743
17653THY    CP128626   1.382   5.190   3.998  0.2150  0.2416 -0.0462
17653THY    HP128627   1.374   5.281   4.058 -0.2222  2.5744 -1.5278
17653THY    CP228628   1.409   5.072   4.093 -0.1315  0.6093  0.5563
17653THY    HP228629   1.324   5.074   4.162  1.1440  2.2307  2.1169
17653THY    HP328630   1.497   5.092   4.155 -0.0589  0.4677  0.6835
17653THY    HP428631   1.425   4.976   4.042  2.1835 -0.4843  1.4399
17653THY    CP328632   1.253   5.165   3.932  0.1908  0.6001 -0.4787
17653THY    HP528633   1.241   5.209   3.832 -0.9792  0.2424 -1.5408
17653THY    HP628634   1.173   5.201   3.998  1.2231  1.6220  0.0064
17653THY    HP728635   1.226   5.059   3.921 -0.2099 -0.1892 -0.3000
17653THY    CA328636   1.555   5.098   3.839  0.1028 -0.3263  0.0065
17653THY    HA328637   1.512   5.000   3.860 -2.1822 -1.6523  0.6418
17653THY    CA428638   1.663   5.117   3.755 -0.5847  0.3294  0.7672
17653THY    HA428639   1.716   5.038   3.703  0.2796  0.3032  1.3489
17653THY    CA528640   1.717   5.244   3.734  0.2372  0.0509 -0.0193
17653THY    CM128641   1.843   5.254   3.656  0.8263 -0.7182  0.3495
17653THY    HM128642   1.898   5.165   3.623  1.6422 -2.4758  1.4528
17653THY    HM228643   1.913   5.317   3.712 -0.6181 -0.5059  1.8072
17653THY    HM328644   1.815   5.307   3.564 -0.0756  0.1488  1.4209
17653THY    CA628645   1.659   5.351   3.794 -0.7132  0.1904 -0.5989
17653THY    HA628646   1.703   5.447   3.768  1.0274  0.9732 -1.1436
17654THY      O28647   0.593   2.182   3.650  0.1318 -0.1835  0.3084
17654THY     HO28648   0.550   2.264   3.620 -0.4546 -1.3703 -0.4063
17654THY    CA128649   0.659   2.127   3.548 -0.1275  0.3768  0.2077
17654THY    CA228650   0.741   2.013   3.561  0.1524  0.0276 -0.5099
17654THY    CP128651   0.766   1.947   3.700 -0.1551 -0.1775  0.6860
17654THY    HP128652   0.731   2.011   3.781  0.1725  0.7507 -0.2847
17654THY    CP228653   0.914   1.934   3.718 -0.3039 -0.0155 -0.5480
17654THY    HP228654   0.965   2.028   3.699  1.5302  0.7959 -1.3417
17654THY    HP328655   0.973   1.864   3.657  0.8385  2.7578 -2.1652
17654THY    HP428656   0.931   1.919   3.825  0.1665 -0.2058 -1.4613
17654THY    CP328657   0.692   1.811   3.714  0.0630  0.2165  0.0746
17654THY    HP528658   0.701   1.756   3.808  1.8948  1.1213  1.7715
17654THY    HP628659   0.732   1.744   3.636  0.2487  0.4518 -0.0899
17654THY    HP728660   0.587   1.841   3.710  0.2313  0.8414  0.7569
17654THY    CA328661   0.808   1.962   3.449 -0.2094  0.0180 -0.2103
17654THY    HA328662   0.872   1.874   3.457  0.9491  0.5919  0.6528
17654THY    CA428663   0.791   2.025   3.326 -0.2580 -0.2136  0.1022
17654THY    HA428664   0.824   1.974   3.236 -1.7243  0.2103 -1.7125
17654THY    CA528665   0.708   2.137   3.314 -0.0539 -0.2522  0.6030
17654THY    CM128666   0.661   2.180   3.184  0.4087  1.0819 -0.2112
17654THY    HM128667   0.599   2.106   3.133  0.8800 -1.2276  0.9134
17654THY    HM228668   0.740   2.198   3.110 -0.5267 -0.5136 -2.2747
17654THY    HM328669   0.603   2.272   3.193  2.2958 -0.1509  1.1637
17654THY    CA628670   0.645   2.195   3.426  0.3194 -0.2940  0.7611
17654THY    HA628671   0.569   2.272   3.417 -0.7505 -1.1531 -0.3564
17655THY      O28672   7.623   9.162   7.335  0.7656  0.6045  0.4298
17655THY     HO28673   7.678   9.147   7.256 -0.4910 -0.2508  0.0820
17655THY    CA128674   7.496   9.134   7.291 -0.3307 -0.6577 -0.1237
17655THY    CA228675   7.390   9.179   7.362  0.4679  0.5882  0.0251
17655THY    CP128676   7.399   9.246   7.496 -0.1567 -0.9530 -0.0726
17655THY    HP128677   7.500   9.262   7.533 -0.4700 -0.9032  2.2167
17655THY    CP228678   7.330   9.161   7.598 -0.2021  0.1167 -0.3342
17655THY    HP228679   7.226   9.136   7.576 -1.2467  1.6076  2.3075
17655THY    HP328680   7.311   9.220   7.688  1.1793  0.3606 -0.2287
17655THY    HP428681   7.402   9.091   7.643  0.2091  2.3561  1.4102
17655THY    CP328682   7.344   9.393   7.491  0.3212 -0.3035  0.2264
17655THY    HP528683   7.314   9.427   7.591  0.2921  0.4526 -1.8958
17655THY    HP628684   7.266   9.394   7.414  0.4792 -0.4979  2.3070
17655THY    HP728685   7.434   9.449   7.462 -0.6375 -0.2249  1.8752
17655THY    CA328686   7.266   9.140   7.307  0.1992 -0.5013 -0.4419
17655THY    HA328687   7.169   9.165   7.348 -0.9436 -2.2522 -1.7432
17655THY    CA428688   7.254   9.061   7.199  0.3443  0.1359 -0.4915
17655THY    HA428689   7.152   9.038   7.169  0.2023 -0.9016  1.2608
17655THY    CA528690   7.361   9.023   7.125  0.4295 -0.0820  0.1620
17655THY    CM128691   7.331   8.952   6.996 -0.0100  0.1130  0.8120
17655THY    HM128692   7.279   8.860   7.026  0.0324  1.5651  1.2302
17655THY    HM228693   7.421   8.917   6.946 -0.1470  0.4627 -0.0796
17655THY    HM328694   7.269   9.002   6.921 -0.4877 -0.6027 -0.7623
17655THY    CA628695   7.488   9.064   7.168 -0.9569 -0.0150  0.3663
17655THY    HA628696   7.580   9.036   7.118 -0.2009  1.5187 -0.0248
17656THY      O28697   5.207   8.515   5.674 -0.0132  0.4560 -0.2232
17656THY     HO28698   5.213   8.510   5.577  0.1125  0.3972  0.8135
17656THY    CA128699   5.299   8.423   5.713  0.2869  0.0683 -0.0610
17656THY    CA228700   5.362   8.444   5.835 -0.7384 -0.2816 -0.5515
17656THY    CP128701   5.324   8.558   5.932  0.1241  0.1108  0.6486
17656THY    HP128702   5.218   8.583   5.919 -0.8761  0.0354 -3.1346
17656THY    CP228703   5.403   8.685   5.893  0.7429  0.5245  0.1141
17656THY    HP228704   5.402   8.701   5.785 -0.9645  0.3230 -1.1161
17656THY    HP328705   5.506   8.681   5.929  0.9784 -0.2245 -1.2053
17656THY    HP428706   5.340   8.768   5.928 -0.2133 -1.9425  0.5082
17656THY    CP328707   5.334   8.528   6.085 -0.5886 -0.0130 -0.8195
17656THY    HP528708   5.268   8.581   6.155  0.8376  0.7830 -0.0429
17656THY    HP628709   5.432   8.560   6.120 -0.8778 -0.7249  0.9499
17656THY    HP728710   5.318   8.420   6.094 -2.5098  2.2062 -0.4350
17656THY    CA328711   5.470   8.357   5.871  0.2279 -0.0491 -0.4965
17656THY    HA328712   5.526   8.367   5.963  2.4244 -1.4546  0.9207
17656THY    CA428713   5.496   8.251   5.785  0.2747 -0.3434 -0.2684
17656THY    HA428714   5.584   8.200   5.824 -0.3740  3.0904  0.9800
17656THY    CA528715   5.439   8.236   5.655 -0.1715  0.0697 -0.9320
17656THY    CM128716   5.474   8.122   5.557 -0.3695  0.7887 -0.1863
17656THY    HM128717   5.449   8.164   5.460 -0.8127  1.0909  0.2548
17656THY    HM228718   5.403   8.041   5.576  1.4930  0.6897 -1.9475
17656THY    HM328719   5.576   8.082   5.553 -1.1955  0.1450 -2.3757
17656THY    CA628720   5.343   8.329   5.619 -0.6787  0.4234 -0.0417
17656THY    HA628721   5.281   8.312   5.531 -2.8441  2.0997 -1.5070
17657THY      O28722   6.774   1.909   2.134  0.3484  0.2696  0.0680
17657THY     HO28723   6.814   1.852   2.067  0.0547 -2.4212  2.7339
17657THY    CA128724   6.643   1.905   2.103 -0.9285 -0.2984 -0.2674
17657THY    CA228725   6.538   1.898   2.202  0.4612  0.2438 -0.2170
17657THY    CP128726   6.563   1.916   2.348 -0.6430  0.2717  0.2977
17657THY    HP128727   6.670   1.933   2.363 -0.5971 -0.3104  0.5359
17657THY    CP228728   6.545   1.792   2.434 -0.2162 -0.1393  0.6207
17657THY    HP228729   6.562   1.826   2.536  2.2236 -0.8798  1.8445
17657THY    HP328730   6.611   1.706   2.416 -2.0946 -0.9030 -0.7405
17657THY    HP428731   6.441   1.756   2.424  0.5443 -1.4434 -1.3981
17657THY    CP328732   6.486   2.031   2.410  0.6863  0.0637  0.2995
17657THY    HP528733   6.517   2.054   2.512 -1.3766  1.5599 -2.9114
17657THY    HP628734   6.377   2.027   2.400  0.8846 -2.3243 -1.3171
17657THY    HP728735   6.508   2.124   2.355 -0.5986  0.8177  1.0752
17657THY    CA328736   6.408   1.860   2.155 -0.3237 -0.1263  0.3324
17657THY    HA328737   6.324   1.861   2.223 -0.3404 -0.1125 -1.0516
17657THY    CA428738   6.386   1.840   2.019 -0.1462  0.2797  0.2434
17657THY    HA428739   6.287   1.808   1.989  0.2783 -0.3639 -0.5050
17657THY    CA528740   6.491   1.860   1.928 -0.7307  0.0642 -0.2995
17657THY    CM128741   6.481   1.825   1.784 -0.0691  0.0845 -0.5537
17657THY    HM128742   6.384   1.790   1.746 -0.7135  0.4127  0.8203
17657THY    HM228743   6.557   1.748   1.761  2.1175  1.7688  0.9792
17657THY    HM328744   6.503   1.913   1.723 -0.5155  0.8578  0.1035
17657THY    CA628745   6.617   1.875   1.974  0.0807  0.0557  0.0893
17657THY    HA628746   6.700   1.876   1.904 -0.8585 -1.1290 -1.0929
17658THY      O28747   4.834   4.666   2.725  0.1498  0.1065  0.3086
17658THY     HO28748   4.930   4.684   2.727  0.2288  1.3022 -0.1558
17658THY    CA128749   4.810   4.597   2.838 -0.1727  0.0887 -0.7274
17658THY    CA228750   4.677   4.593   2.902 -0.0615 -0.0755 -0.3962
17658THY    CP128751   4.552   4.664   2.841  0.0481 -0.7897 -0.2425
17658THY    HP128752   4.578   4.687   2.736 -1.0758 -1.3096 -1.2446
17658THY    CP228753   4.531   4.796   2.899  0.7828  0.5793 -0.2758
17658THY    HP228754   4.620   4.860   2.893 -1.4773  0.8161  3.1794
17658THY    HP328755   4.503   4.776   3.004  0.3882  1.0468  2.3428
17658THY    HP428756   4.443   4.847   2.859 -1.0721  1.0194 -2.9112
17658THY    CP328757   4.430   4.572   2.846  0.2402 -0.0611 -0.1242
17658THY    HP528758   4.410   4.548   2.952  2.3199  0.6721  1.0889
17658THY    HP628759   4.446   4.480   2.790  0.3702 -2.9872  1.5527
17658THY    HP728760   4.343   4.618   2.797  1.7436 -2.1287  0.6417
17658THY    CA328761   4.669   4.512   3.019 -0.1829 -1.1928 -0.0511
17658THY    HA328762   4.577   4.500   3.075 -0.0363 -1.2866 -2.1031
17658THY    CA428763   4.783   4.439   3.060 -0.0877  0.1655  0.1863
17658THY    HA428764   4.765   4.361   3.134 -3.6116 -1.7156 -1.0488
17658THY    CA528765   4.908   4.450   2.995  0.3590  0.2190  0.2579
17658THY    CM128766   5.015   4.359   3.043 -0.2108  0.0110  0.5410
17658THY    HM128767   4.984   4.277   3.109  1.1449 -1.7674 -1.5417
17658THY    HM228768   5.074   4.425   3.107 -1.3154  0.0370  1.5363
17658THY    HM328769   5.073   4.319   2.958 -0.6363  0.8703 -2.1058
17658THY    CA628770   4.922   4.534   2.888 -0.5942 -0.1587 -0.0664
17658THY    HA628771   5.018   4.555   2.844 -0.8393 -0.2546  0.8650
17659THY      O28772   4.723   6.229   5.822  0.0978  0.0129  0.4314
17659THY     HO28773   4.707   6.285   5.745 -0.5990  0.2531  0.5691
17659THY    CA128774   4.796   6.126   5.783 -0.2138  0.1212 -0.0302
17659THY    CA228775   4.884   6.064   5.876 -0.3275 -0.3291  0.5464
17659THY    CP128776   4.871   6.104   6.024  0.2169  0.3078  0.4313
17659THY    HP128777   4.861   6.213   6.025 -0.1602  0.4438  0.3962
17659THY    CP228778   4.993   6.079   6.114 -0.5203  0.2981 -0.3686
17659THY    HP228779   5.084   6.122   6.071 -1.2199  0.5910  1.4803
17659THY    HP328780   5.006   5.975   6.146  0.6333  0.7374 -0.0955
17659THY    HP428781   4.983   6.147   6.199  1.0460 -0.3580  0.7403
17659THY    CP328782   4.750   6.043   6.086 -0.4094 -0.2712  0.2947
17659THY    HP528783   4.732   6.071   6.191  0.6634  0.3531 -1.2099
17659THY    HP628784   4.753   5.933   6.081 -2.2807  0.6812  0.1518
17659THY    HP728785   4.658   6.067   6.031 -1.5965 -0.5341 -3.9655
17659THY    CA328786   4.977   5.959   5.833 -0.1301 -0.8430  0.2643
17659THY    HA328787   5.045   5.907   5.899 -1.3542 -0.1211 -0.4949
17659THY    CA428788   4.978   5.934   5.698 -0.3745 -0.4783  0.3386
17659THY    HA428789   5.055   5.866   5.662 -0.0775 -0.1710  0.5099
17659THY    CA528790   4.893   6.001   5.608  0.2269 -0.5538 -0.6303
17659THY    CM128791   4.894   5.960   5.462 -0.7420 -0.7708  0.6275
17659THY    HM128792   4.877   5.853   5.446 -0.7026  1.0240  0.3322
17659THY    HM228793   4.987   5.984   5.410  1.0945  0.0538 -3.7142
17659THY    HM328794   4.816   6.012   5.404 -0.6938 -0.2811  1.2615
17659THY    CA628795   4.803   6.097   5.657 -0.7008 -0.0957 -0.4405
17659THY    HA628796   4.739   6.143   5.582 -0.8941 -0.5804 -1.4448
17660THY      O28797   7.509   0.092   3.889  0.2841 -0.1446  0.6949
17660THY     HO28798   7.434   0.052   3.937 -0.7407 -2.4760 -0.3637
17660THY    CA128799   7.453   0.207   3.871  0.0473  0.8211 -0.7198
17660THY    CA228800   7.527   0.327   3.854 -0.3263  0.4505  0.4099
17660THY    CP128801   7.680   0.333   3.861  0.4161 -0.6480  0.9684
17660THY    HP128802   7.719   0.232   3.877 -3.2572 -0.7610 -0.6464
17660THY    CP228803   7.733   0.423   3.970 -0.1562 -0.4298 -0.2227
17660THY    HP228804   7.695   0.391   4.069  0.4805 -0.1493 -0.1151
17660THY    HP328805   7.703   0.526   3.951 -1.0794  0.8187 -0.2364
17660THY    HP428806   7.842   0.418   3.977 -0.0853 -1.6165 -0.6393
17660THY    CP328807   7.746   0.384   3.738 -0.1098  0.2685  0.1256
17660THY    HP528808   7.715   0.328   3.649 -0.9608  0.5732  0.0951
17660THY    HP628809   7.848   0.347   3.756 -0.3576  1.7198  0.0904
17660THY    HP728810   7.741   0.491   3.713 -2.2769  1.2572  0.3022
17660THY    CA328811   7.456   0.445   3.829 -0.8032 -0.0284  0.5909
17660THY    HA328812   7.509   0.535   3.800  0.0009 -0.9739 -0.1600
17660THY    CA428813   7.321   0.446   3.841 -0.2398  0.2048  0.4192
17660THY    HA428814   7.262   0.535   3.822 -0.4106 -0.1188  0.2384
17660THY    CA528815   7.244   0.334   3.863  0.8305  0.1593 -0.0792
17660THY    CM128816   7.092   0.344   3.870 -0.5783  0.4501  0.1298
17660THY    HM128817   7.058   0.423   3.938 -4.8909 -0.7941 -0.3707
17660THY    HM228818   7.059   0.246   3.908  1.1669  2.8132  0.3642
17660THY    HM328819   7.055   0.350   3.767 -1.3937  0.5842 -1.7886
17660THY    CA628820   7.313   0.214   3.877 -0.0796 -0.3581 -0.7443
17660THY    HA628821   7.242   0.134   3.896 -1.2457  1.0857  0.5497
17661THY      O28822   2.909   8.765   3.956  0.8472 -0.4621 -0.7115
17661THY     HO28823   2.891   8.786   4.050  4.3871 -0.2063  1.9864
17661THY    CA128824   3.026   8.691   3.952  0.3849 -0.0544 -0.0978
17661THY    CA228825   3.097   8.668   3.828  0.2425  0.5267 -0.1844
17661THY    CP128826   3.059   8.736   3.699 -0.2475  0.8439 -0.6855
17661THY    HP128827   2.961   8.784   3.712 -0.7420 -2.2671 -0.6095
17661THY    CP228828   3.031   8.645   3.583  0.2738 -0.0953  0.3200
17661THY    HP228829   2.924   8.621   3.583  0.4952 -0.9659 -0.8094
17661THY    HP328830   3.070   8.543   3.596  2.1151  0.9305  1.1194
17661THY    HP428831   3.066   8.697   3.492  2.7625  1.1302  0.9425
17661THY    CP328832   3.170   8.840   3.646  0.2478 -0.0957  0.0597
17661THY    HP528833   3.252   8.781   3.605 -0.6504 -0.6813 -0.8174
17661THY    HP628834   3.209   8.891   3.735 -1.5704 -0.1170  1.6157
17661THY    HP728835   3.132   8.912   3.573  0.4168 -1.1225 -0.8593
17661THY    CA328836   3.209   8.583   3.824 -0.0544  0.1513 -0.0638
17661THY    HA328837   3.267   8.571   3.733 -0.7394 -0.1404 -1.2835
17661THY    CA428838   3.258   8.526   3.939  0.7154 -0.8726 -0.2434
17661THY    HA428839   3.353   8.475   3.944 -0.1474  1.3107 -1.7616
17661THY    CA528840   3.175   8.529   4.050  0.2788  0.5803 -0.5637
17661THY    CM128841   3.209   8.439   4.168 -0.0515 -0.0478 -0.6782
17661THY    HM128842   3.121   8.433   4.234  0.2673  0.3592 -0.8938
17661THY    HM228843   3.291   8.488   4.221  1.4074 -2.9097  0.2046
17661THY    HM328844   3.242   8.337   4.147 -1.7881 -1.2367 -1.0583
17661THY    CA628845   3.060   8.612   4.059 -1.4509  0.4364  0.7478
17661THY    HA628846   2.996   8.618   4.147 -1.6626  0.3717 -0.2648
17662THY      O28847   6.614   1.204   7.619 -0.4511  0.3101 -0.5275
17662THY     HO28848   6.701   1.224   7.579 -0.0096  0.9797 -1.0851
17662THY    CA128849   6.528   1.275   7.544  0.0767  0.0020 -0.4780
17662THY    CA228850   6.394   1.264   7.555 -0.6947 -0.0414  0.4316
17662THY    CP128851   6.334   1.169   7.664  0.2672 -0.2326  0.4929
17662THY    HP128852   6.403   1.101   7.714 -0.3995  1.3683  0.9537
17662THY    CP228853   6.222   1.074   7.603 -0.2553 -0.5028  0.3375
17662THY    HP228854   6.152   1.131   7.541 -0.2539 -2.0520 -1.2783
17662THY    HP328855   6.176   1.011   7.680 -0.5341 -3.1933 -3.0346
17662THY    HP428856   6.267   0.994   7.544 -0.2896  0.9677 -0.8238
17662THY    CP328857   6.273   1.251   7.779 -0.2631 -0.7808  0.0031
17662THY    HP528858   6.335   1.326   7.830 -1.2792 -0.4934  0.6630
17662THY    HP628859   6.234   1.196   7.865 -2.4588 -1.5306  0.2770
17662THY    HP728860   6.192   1.304   7.729 -0.7272  0.2293  0.2662
17662THY    CA328861   6.310   1.343   7.476  0.1934  0.1554 -0.0580
17662THY    HA328862   6.202   1.341   7.482 -0.0477 -0.7494  3.4870
17662THY    CA428863   6.365   1.430   7.377 -0.1839 -0.6313  0.6929
17662THY    HA428864   6.307   1.503   7.321 -0.6546 -1.9913 -0.6678
17662THY    CA528865   6.509   1.436   7.364  0.7052 -0.4532 -0.0007
17662THY    CM128866   6.576   1.528   7.268  0.5657 -0.4207 -1.1926
17662THY    HM128867   6.546   1.495   7.168  1.5746 -0.8102 -0.9670
17662THY    HM228868   6.685   1.533   7.274  0.9019 -3.3275 -2.6178
17662THY    HM328869   6.524   1.623   7.278 -0.6079 -0.1078 -1.8479
17662THY    CA628870   6.589   1.354   7.441 -0.0143 -0.2368 -1.0263
17662THY    HA628871   6.696   1.371   7.440 -0.0897  2.9153  0.1829
17663THY      O28872   4.133   2.278   2.469 -0.0627 -0.7709  0.2741
17663THY     HO28873   4.157   2.371   2.486 -0.3682  0.9995  0.0648
17663THY    CA128874   4.122   2.266   2.336 -0.2404  0.0183  0.2276
17663THY    CA228875   4.146   2.143   2.274 -0.2699 -0.2887 -0.1407
17663THY    CP128876   4.211   2.024   2.343  0.8030 -0.1995  0.3629
17663THY    HP128877   4.179   2.019   2.447  0.4577 -0.3834 -2.1669
17663THY    CP228878   4.366   2.025   2.347 -0.1087  0.3172 -0.1321
17663THY    HP228879   4.402   2.125   2.372 -4.1512  3.0993  0.8958
17663THY    HP328880   4.404   1.995   2.249  0.6947  0.0774  1.5737
17663THY    HP428881   4.416   1.959   2.419  2.7604 -0.3413  1.2123
17663THY    CP328882   4.146   1.890   2.290  0.2832  0.5835  0.0534
17663THY    HP528883   4.038   1.899   2.305  0.4742  1.2493  1.8306
17663THY    HP628884   4.187   1.801   2.338  1.0044 -1.7039 -0.9157
17663THY    HP728885   4.155   1.870   2.183 -1.6911 -0.0666  2.1970
17663THY    CA328886   4.141   2.142   2.133 -0.1605 -0.5515 -0.4324
17663THY    HA328887   4.164   2.047   2.085  1.1655 -0.5836 -0.1126
17663THY    CA428888   4.103   2.254   2.055 -0.3495  0.0021 -0.5929
17663THY    HA428889   4.097   2.248   1.947  1.1412 -0.0514 -1.3868
17663THY    CA528890   4.071   2.371   2.121  0.1981 -0.2146 -0.4883
17663THY    CM128891   4.039   2.499   2.051 -0.1056  0.5046 -0.6336
17663THY    HM128892   3.934   2.510   2.023 -0.1621  0.7521 -0.5048
17663THY    HM228893   4.090   2.526   1.958 -2.1278 -0.3465  0.5120
17663THY    HM328894   4.067   2.583   2.116  0.3471 -1.5815  0.9146
17663THY    CA628895   4.088   2.381   2.262 -0.2970  0.0324 -0.2089
17663THY    HA628896   4.063   2.473   2.315 -0.0267  1.5928 -1.0025
17664THY      O28897   6.839   5.920   3.400 -0.4552  0.6913  0.6539
17664THY     HO28898   6.757   5.870   3.394 -0.8397  0.6708  1.2732
17664THY    CA128899   6.841   5.989   3.280 -0.0017 -0.4010 -0.2126
17664THY    CA228900   6.950   6.033   3.211  0.0217 -0.7322 -0.4703
17664THY    CP128901   7.089   6.010   3.259  0.1565 -0.4783 -0.1108
17664THY    HP128902   7.078   5.990   3.366 -2.4059 -0.8763 -1.3225
17664THY    CP228903   7.183   6.131   3.248  0.2459  0.5702 -0.2940
17664THY    HP228904   7.148   6.212   3.313 -2.9555 -1.4005  0.1099
17664THY    HP328905   7.213   6.169   3.150  1.1178  1.1951  0.6915
17664THY    HP428906   7.279   6.107   3.295  0.7890 -0.5015 -0.2661
17664THY    CP328907   7.160   5.890   3.193  0.2860 -0.4424  0.7074
17664THY    HP528908   7.092   5.807   3.169  0.9879 -1.9990  0.5486
17664THY    HP628909   7.233   5.848   3.264 -1.5686  1.5066  0.5962
17664THY    HP728910   7.208   5.927   3.102  0.4627 -0.6593 -0.0505
17664THY    CA328911   6.932   6.121   3.098  0.9828  0.6474 -0.1927
17664THY    HA328912   7.015   6.169   3.047  0.1765 -0.7501 -0.2452
17664THY    CA428913   6.798   6.150   3.061  0.2398  0.2649  0.5512
17664THY    HA428914   6.781   6.228   2.986 -0.3194  0.3724  0.5360
17664THY    CA528915   6.688   6.089   3.121 -0.1804 -0.0689 -1.1080
17664THY    CM128916   6.546   6.128   3.080  0.2219 -0.3595  0.1744
17664THY    HM128917   6.508   6.102   2.980 -2.4818  0.7457 -0.4332
17664THY    HM228918   6.540   6.237   3.088 -0.9150  0.6475  0.0529
17664THY    HM328919   6.478   6.087   3.155 -0.3147 -0.7718  0.3005
17664THY    CA628920   6.709   6.009   3.229  0.3244 -0.8325  0.3084
17664THY    HA628921   6.626   5.960   3.278  0.9659 -1.5746 -1.5963
17665THY      O28922   2.906   3.383   2.593  0.3142 -0.5664 -0.3179
17665THY     HO28923   2.946   3.343   2.514  1.8463 -0.8259  1.5781
17665THY    CA128924   2.771   3.392   2.573 -0.2890 -0.1756  0.4351
17665THY    CA228925   2.682   3.421   2.673 -0.7746  0.3387 -0.4724
17665THY    CP128926   2.730   3.439   2.819  0.0511 -0.7569  0.5312
17665THY    HP128927   2.838   3.427   2.833 -0.2595  0.4275 -1.2972
17665THY    CP228928   2.689   3.315   2.891 -0.0790  0.3786  0.3820
17665THY    HP228929   2.723   3.304   2.995 -3.0859  1.4100 -0.0948
17665THY    HP328930   2.731   3.227   2.841 -0.3650 -1.1156  1.0672
17665THY    HP428931   2.581   3.297   2.890 -0.0317  0.8118  0.0749
17665THY    CP328932   2.678   3.566   2.888 -0.3327  0.1180  0.8319
17665THY    HP528933   2.723   3.655   2.841 -1.6656 -0.4173  1.2463
17665THY    HP628934   2.705   3.569   2.994 -1.8724  0.5291  0.9588
17665THY    HP728935   2.569   3.572   2.884 -0.6212  0.0013 -2.6201
17665THY    CA328936   2.544   3.438   2.643  0.2056 -0.1599  0.6194
17665THY    HA328937   2.481   3.474   2.724  1.7546  2.3039 -1.7955
17665THY    CA428938   2.499   3.412   2.517  0.8960 -0.3256 -0.7430
17665THY    HA428939   2.397   3.437   2.488 -0.2591  2.1190 -2.2454
17665THY    CA528940   2.590   3.370   2.419 -0.5601  0.1582  0.4144
17665THY    CM128941   2.538   3.333   2.283  1.0666 -0.2830 -0.1008
17665THY    HM128942   2.624   3.327   2.215  1.1975 -0.1584  0.3265
17665THY    HM228943   2.482   3.423   2.254 -0.2900  1.4603 -0.3278
17665THY    HM328944   2.474   3.244   2.281  0.6370  2.7351  0.0219
17665THY    CA628945   2.726   3.366   2.446  0.4212  0.0185 -0.9187
17665THY    HA628946   2.795   3.354   2.363  1.4227  1.0555 -2.7330
17666THY      O28947   2.422   4.967   5.617  0.1792  0.2344 -0.3728
17666THY     HO28948   2.381   4.911   5.685 -0.8664 -0.4628 -0.4764
17666THY    CA128949   2.402   4.895   5.506 -0.2026  0.2623 -0.0064
17666THY    CA228950   2.469   4.941   5.384  0.0525 -0.3318 -0.0505
17666THY    CP128951   2.563   5.067   5.386 -0.2449  0.6871 -0.1190
17666THY    HP128952   2.610   5.069   5.485 -0.3422  0.7349 -0.2000
17666THY    CP228953   2.478   5.191   5.394 -0.4838  0.2014 -0.7885
17666THY    HP228954   2.536   5.283   5.389  0.9628  0.2788 -1.6611
17666THY    HP328955   2.422   5.189   5.488 -1.8551 -0.5593  0.2608
17666THY    HP428956   2.404   5.190   5.313 -1.9234  1.4494 -2.5295
17666THY    CP328957   2.674   5.064   5.283  0.4251  0.8912 -0.6926
17666THY    HP528958   2.753   5.138   5.299 -0.6036 -0.7940  0.8540
17666THY    HP628959   2.622   5.084   5.188  0.9102  1.1372  2.2394
17666THY    HP728960   2.725   4.968   5.287  0.0377 -0.8767 -1.0061
17666THY    CA328961   2.437   4.867   5.266  0.0763 -0.2883 -0.5115
17666THY    HA328962   2.482   4.902   5.173 -0.5549  0.1845  1.6987
17666THY    CA428963   2.339   4.762   5.269  0.0628  0.0720 -0.2597
17666THY    HA428964   2.305   4.714   5.177  1.9797  0.4593 -2.5170
17666THY    CA528965   2.295   4.715   5.395  0.2097  0.0911 -0.3493
17666THY    CM128966   2.208   4.593   5.406 -0.3196  0.5196  0.7300
17666THY    HM128967   2.140   4.582   5.491  0.4649  1.2445  1.4175
17666THY    HM228968   2.269   4.503   5.402 -0.6897  0.0220  0.4907
17666THY    HM328969   2.137   4.599   5.322  0.2369 -0.0222 -0.1537
17666THY    CA628970   2.320   4.786   5.510  0.1640  0.2546 -0.6387
17666THY    HA628971   2.262   4.759   5.598 -2.2201 -0.3724  2.0528
17667THY      O28972   1.616   1.759   3.122 -0.2339 -0.0586  0.2489
17667THY     HO28973   1.536   1.737   3.171  0.1536 -0.0440 -1.1872
17667THY    CA128974   1.606   1.700   2.996 -0.2631 -0.2921 -0.6865
17667THY    CA228975   1.710   1.695   2.903 -0.2386  0.2988  0.4395
17667THY    CP128976   1.846   1.746   2.955  0.3460 -0.6915 -0.4089
17667THY    HP128977   1.827   1.820   3.034  2.2300 -1.1856  0.6708
17667THY    CP228978   1.922   1.830   2.847 -0.5997 -0.0705  0.1910
17667THY    HP228979   1.911   1.778   2.751  0.1248 -1.2330  2.0741
17667THY    HP328980   2.028   1.838   2.874 -0.6416  0.8767 -1.6904
17667THY    HP428981   1.872   1.926   2.829  2.9127 -1.9640  1.8616
17667THY    CP328982   1.933   1.636   3.026  0.2278  0.5107  0.4647
17667THY    HP528983   2.012   1.682   3.086  0.3725  0.8343 -0.1998
17667THY    HP628984   1.980   1.577   2.946  2.0905  1.0398  1.1661
17667THY    HP728985   1.877   1.574   3.096  1.3115 -0.2605 -1.4871
17667THY    CA328986   1.688   1.623   2.781  0.1675  0.2859 -0.5380
17667THY    HA328987   1.771   1.610   2.712 -0.9398 -1.1631 -0.1961
17667THY    CA428988   1.562   1.566   2.758 -0.0837  0.0809  0.0569
17667THY    HA428989   1.543   1.511   2.666 -0.6555 -0.8404  1.7177
17667THY    CA528990   1.452   1.590   2.840 -0.8880 -0.5125 -0.5882
17667THY    CM128991   1.324   1.542   2.809  0.2315 -0.1704 -0.7585
17667THY    HM128992   1.268   1.635   2.795  0.5685  0.2374 -0.4858
17667THY    HM228993   1.287   1.494   2.900  1.1141 -0.0326 -1.2061
17667THY    HM328994   1.318   1.479   2.719 -0.3593 -2.0483  1.8157
17667THY    CA628995   1.477   1.662   2.956  0.6297 -0.2648  1.1858
17667THY    HA628996   1.397   1.667   3.030  0.7154  0.3143 -2.9597
17668THY      O28997   6.659   8.588   5.878  0.4370 -0.1390 -0.3600
17668THY     HO28998   6.751   8.580   5.911  0.6383 -0.2486  1.1321
17668THY    CA128999   6.570   8.602   5.981 -0.1333 -0.4887  0.3670
17668THY    CA229000   6.435   8.546   5.985  0.1445 -0.7491  0.3355
17668THY    CP129001   6.374   8.490   5.861 -0.1547 -0.4816  0.4533
17668THY    HP129002   6.438   8.517   5.776  1.9094  0.0128 -2.4338
17668THY    CP229003   6.251   8.576   5.824  0.2247 -0.7056  0.0004
17668THY    HP229004   6.168   8.552   5.892  0.3739 -0.3665  0.4468
17668THY    HP329005   6.224   8.552   5.721 -1.5275 -0.3877  0.4261
17668THY    HP429006   6.283   8.680   5.830  1.2592 -0.9912 -0.2985
17668THY    CP329007   6.342   8.343   5.868 -0.2518 -0.3536 -0.0830
17668THY    HP529008   6.249   8.322   5.921  1.0381  2.3337  0.6231
17668THY    HP629009   6.434   8.302   5.912  0.5000 -1.1845  0.6506
17668THY    HP729010   6.329   8.299   5.768 -0.5427 -0.6596  0.6915
17668THY    CA329011   6.372   8.538   6.111  0.3931  0.1863  0.4706
17668THY    HA329012   6.279   8.484   6.126  1.2065  0.9179 -0.7785
17668THY    CA429013   6.442   8.585   6.226 -0.2510 -0.4912 -0.2229
17668THY    HA429014   6.423   8.545   6.325  0.9305  0.8517  2.2958
17668THY    CA529015   6.562   8.652   6.217 -0.2148  0.0723 -0.4553
17668THY    CM129016   6.623   8.712   6.340 -0.0667  0.4831  1.2243
17668THY    HM129017   6.651   8.631   6.409 -1.5585 -0.3518 -0.0703
17668THY    HM229018   6.570   8.785   6.402 -0.5269  0.4276  0.9442
17668THY    HM329019   6.715   8.765   6.313 -0.1627 -0.1781  1.0585
17668THY    CA629020   6.626   8.656   6.092  0.3628 -0.3058  0.2165
17668THY    HA629021   6.728   8.693   6.081 -0.2004 -1.6748  1.4361
17669THY      O29022   9.042   5.805   3.056 -0.0651  0.6003  0.0292
17669THY     HO29023   9.026   5.851   2.971 -0.5286 -0.1334 -1.4176
17669THY    CA129024   9.130   5.707   3.022 -1.2287 -0.9928  0.1798
17669THY    CA229025   9.168   5.606   3.111  0.5723 -0.2359 -0.3292
17669THY    CP129026   9.123   5.609   3.262 -0.0370 -0.0775  0.3600
17669THY    HP129027   9.109   5.713   3.292  1.2482  2.2147 -0.0691
17669THY    CP229028   9.224   5.564   3.358 -0.5497 -0.6537 -0.1554
17669THY    HP229029   9.217   5.615   3.455 -1.6147  0.4368 -2.2556
17669THY    HP329030   9.320   5.585   3.309  0.7100  0.7776 -2.1806
17669THY    HP429031   9.219   5.455   3.368 -0.1542  1.1086 -0.0394
17669THY    CP329032   8.991   5.526   3.289 -0.2879 -0.0738  0.0837
17669THY    HP529033   8.969   5.529   3.396  0.5247  0.1235 -0.6524
17669THY    HP629034   8.997   5.420   3.262 -3.5110  2.1538 -0.8099
17669THY    HP729035   8.916   5.577   3.228 -0.3762  2.0323  2.7295
17669THY    CA329036   9.255   5.505   3.067  0.5208 -0.3916 -0.1827
17669THY    HA329037   9.269   5.420   3.133 -1.2495  0.7466  0.3410
17669THY    CA429038   9.310   5.519   2.933 -0.4943 -0.3890  0.8670
17669THY    HA429039   9.386   5.447   2.904 -1.7213 -0.7204 -0.3479
17669THY    CA529040   9.280   5.625   2.856 -0.2379  0.3446 -0.2865
17669THY    CM129041   9.364   5.643   2.732  0.2798  0.2411  0.1858
17669THY    HM129042   9.460   5.693   2.750  2.4238 -2.8359 -2.3569
17669THY    HM229043   9.297   5.701   2.668  1.0768 -1.1583 -0.3684
17669THY    HM329044   9.387   5.544   2.691 -0.0380 -3.6936  1.5474
17669THY    CA629045   9.186   5.719   2.897  0.0590 -0.1323 -0.2712
17669THY    HA629046   9.163   5.806   2.836 -2.6966 -0.3314 -1.0577
17670THY      O29047   9.076   5.307   7.713 -0.3904  0.4862 -0.3855
17670THY     HO29048   9.173   5.316   7.705 -0.4749 -2.5709 -0.9634
17670THY    CA129049   9.050   5.192   7.659  0.4451  0.0700  0.2472
17670THY    CA229050   8.970   5.189   7.544  0.4926  0.1558  0.3149
17670THY    CP129051   8.923   5.318   7.474  0.0030  0.3406  0.0753
17670THY    HP129052   8.966   5.401   7.531 -0.6019 -0.0079  0.6252
17670THY    CP229053   8.768   5.342   7.468  0.4018 -0.0453 -0.3973
17670THY    HP229054   8.720   5.251   7.433 -1.2256 -0.9817  0.7694
17670THY    HP329055   8.740   5.433   7.414 -0.2266 -0.4820 -0.8449
17670THY    HP429056   8.735   5.340   7.573 -1.3158 -0.5741 -2.1401
17670THY    CP329057   8.991   5.341   7.338 -0.0643 -0.4559  0.2859
17670THY    HP529058   8.968   5.267   7.261  2.6255 -0.7394 -0.3433
17670THY    HP629059   9.100   5.344   7.350 -0.1857  1.1506 -0.2337
17670THY    HP729060   8.958   5.435   7.292 -2.1837 -1.3023 -0.7974
17670THY    CA329061   8.926   5.067   7.488 -0.4737 -0.1491 -0.4733
17670THY    HA329062   8.852   5.063   7.409 -1.6646  0.6791  2.4020
17670THY    CA429063   8.968   4.947   7.555  0.6998  0.0258 -0.4386
17670THY    HA429064   8.944   4.852   7.510 -0.0964  3.4140 -1.9995
17670THY    CA529065   9.061   4.958   7.664  0.9824 -0.0866  0.6211
17670THY    CM129066   9.121   4.831   7.722 -0.0563 -0.4871 -0.2625
17670THY    HM129067   9.064   4.802   7.811  1.1220  1.3781  2.7725
17670THY    HM229068   9.228   4.843   7.744 -0.2634 -0.0834  0.9267
17670THY    HM329069   9.120   4.743   7.656 -0.3396  0.1035 -0.7066
17670THY    CA629070   9.096   5.077   7.716  0.1380  0.3227 -0.2316
17670THY    HA629071   9.164   5.073   7.800  1.3919 -0.6867 -1.1290
17671THY      O29072   0.761   8.367   2.001  0.1341 -0.6216  0.5332
17671THY     HO29073   0.773   8.271   1.988 -0.9656  1.4987  0.0480
17671THY    CA129074   0.845   8.415   2.098  0.7573  0.5621  0.0312
17671THY    CA229075   0.853   8.552   2.129  0.0789  0.4240 -0.3767
17671THY    CP129076   0.772   8.651   2.050 -0.4689 -0.1161 -0.5865
17671THY    HP129077   0.693   8.598   1.996 -1.9441  0.8434  0.5515
17671THY    CP229078   0.852   8.729   1.946  0.0247  0.0044  0.6720
17671THY    HP229079   0.783   8.785   1.882  0.3190 -2.4433 -1.5724
17671THY    HP329080   0.909   8.660   1.882  1.4081  2.6202 -0.7627
17671THY    HP429081   0.928   8.797   1.988  0.0815  1.9292 -0.5035
17671THY    CP329082   0.691   8.748   2.130  0.0776  0.5425  0.3398
17671THY    HP529083   0.628   8.685   2.194  0.1405 -0.7072 -1.0593
17671THY    HP629084   0.626   8.809   2.065 -0.6363  0.6510 -0.2821
17671THY    HP729085   0.759   8.809   2.190  2.6210 -2.7840  1.0585
17671THY    CA329086   0.949   8.593   2.223  0.5871  0.1279  0.4418
17671THY    HA329087   0.962   8.701   2.233  2.4066 -3.3326  0.6865
17671THY    CA429088   1.030   8.497   2.283 -0.2689 -0.0387 -0.6084
17671THY    HA429089   1.085   8.542   2.366 -2.5898  0.5575  1.3255
17671THY    CA529090   1.020   8.362   2.251 -0.3809 -0.1471 -0.0138
17671THY    CM129091   1.101   8.264   2.328 -0.4073  0.4099  0.1685
17671THY    HM129092   1.159   8.208   2.253 -1.0356  0.3883 -0.4715
17671THY    HM229093   1.036   8.194   2.382 -1.0732  2.7371  2.4499
17671THY    HM329094   1.167   8.305   2.405  1.1216 -1.7056  1.9077
17671THY    CA629095   0.930   8.322   2.157 -0.5539  0.1269  0.1833
17671THY    HA629096   0.928   8.215   2.139  2.5503  0.0829  0.0356
17672THY      O29097   9.368   7.359   4.454  0.6057  0.3666 -0.4480
17672THY     HO29098   9.358   7.410   4.536 -2.1879  0.6427 -1.3021
17672THY    CA129099   9.239   7.325   4.418 -0.1956  0.3191 -0.4112
17672THY    CA229100   9.216   7.228   4.324 -0.7739 -0.8717  0.3154
17672THY    CP129101   9.336   7.149   4.261  0.7572  1.2528 -0.5133
17672THY    HP129102   9.430   7.188   4.300 -0.1698  1.5180  1.6044
17672THY    CP229103   9.327   7.175   4.106 -0.6668  0.2741 -0.3497
17672THY    HP229104   9.246   7.113   4.066 -0.4372 -2.7040  1.0969
17672THY    HP329105   9.425   7.147   4.063  0.2891  1.1483  1.5025
17672THY    HP429106   9.305   7.280   4.084 -2.8298  0.5862 -0.7041
17672THY    CP329107   9.325   7.004   4.296 -0.7374  0.1191  0.5342
17672THY    HP529108   9.339   7.006   4.405 -0.5510  0.0995  0.2937
17672THY    HP629109   9.418   6.966   4.251 -1.0011 -0.7166  0.8590
17672THY    HP729110   9.229   6.962   4.267 -0.5882 -0.2165  0.4194
17672THY    CA329111   9.082   7.183   4.297  0.1405  0.6052 -1.0265
17672THY    HA329112   9.060   7.109   4.221  1.2693  0.2369 -1.0011
17672THY    CA429113   8.972   7.236   4.362  0.7133 -0.6237  0.3747
17672THY    HA429114   8.872   7.201   4.338  0.9937 -0.7848 -0.3460
17672THY    CA529115   8.991   7.336   4.461 -0.7337 -0.0974 -0.9082
17672THY    CM129116   8.867   7.401   4.525  0.1765  0.2571  0.3512
17672THY    HM129117   8.889   7.422   4.630  1.8060 -0.0024  0.0346
17672THY    HM229118   8.784   7.329   4.523 -0.3222 -2.3374  0.9175
17672THY    HM329119   8.834   7.491   4.472 -0.4354  1.5704  0.9296
17672THY    CA629120   9.124   7.386   4.481 -0.6457  0.6030 -0.1870
17672THY    HA629121   9.140   7.462   4.558 -1.0525 -0.5390  1.1027
17673THY      O29122   9.077   4.954   3.407  0.3701  0.0168 -0.0766
17673THY     HO29123   9.117   4.876   3.367 -0.4523 -0.5993 -0.1837
17673THY    CA129124   9.065   4.915   3.540  1.1823  0.3403 -0.6513
17673THY    CA229125   9.041   5.010   3.653 -0.7110  0.1283 -0.2407
17673THY    CP129126   9.012   5.157   3.620 -0.7400 -0.3281 -0.1446
17673THY    HP129127   9.003   5.163   3.511  0.5136 -0.3777  1.5083
17673THY    CP229128   9.134   5.242   3.649  0.0560  0.4105  0.7693
17673THY    HP229129   9.218   5.203   3.591 -0.2304 -0.9870  2.1529
17673THY    HP329130   9.149   5.243   3.758 -0.6055  0.5131  0.4709
17673THY    HP429131   9.119   5.342   3.607 -2.4191 -0.0380  0.2738
17673THY    CP329132   8.887   5.198   3.692  0.6443 -0.2381  0.4574
17673THY    HP529133   8.908   5.227   3.796  1.6011 -0.1212 -0.6137
17673THY    HP629134   8.807   5.123   3.696  1.3769  0.5210 -0.3097
17673THY    HP729135   8.848   5.293   3.655 -0.0965  3.6429  1.8592
17673THY    CA329136   9.040   4.956   3.782 -0.0242 -0.2373  0.4003
17673THY    HA329137   9.039   5.029   3.863  1.5884 -0.3758  0.6238
17673THY    CA429138   9.047   4.815   3.805  0.7841  0.1735 -0.2079
17673THY    HA429139   9.040   4.766   3.902  0.5365  1.4590  2.2224
17673THY    CA529140   9.075   4.730   3.694  0.5193  0.2079  0.4647
17673THY    CM129141   9.089   4.572   3.714  0.8233 -0.4659 -0.2235
17673THY    HM129142   9.151   4.525   3.637  0.8788 -0.7188  0.2505
17673THY    HM229143   8.993   4.520   3.713  0.9287 -0.5675 -0.4163
17673THY    HM329144   9.147   4.563   3.807  0.8808 -0.4954 -0.1697
17673THY    CA629145   9.084   4.786   3.565  0.2021 -0.2233  0.7120
17673THY    HA629146   9.106   4.712   3.488 -1.8413  1.2539 -1.5761
17674THY      O29147   5.150   7.221   7.477  0.3146  0.5446  0.5872
17674THY     HO29148   5.089   7.223   7.553 -0.2873  0.1555 -1.1679
17674THY    CA129149   5.135   7.103   7.419  0.3450  0.3188  0.7016
17674THY    CA229150   5.182   7.079   7.288  0.4680  0.1138  0.4063
17674THY    CP129151   5.265   7.181   7.210 -0.1214 -0.2994  0.0752
17674THY    HP129152   5.317   7.252   7.276  0.7251 -1.6362  0.7538
17674THY    CP229153   5.181   7.272   7.112 -0.4933  0.5540 -0.6513
17674THY    HP229154   5.245   7.319   7.036  1.1442  2.4116  0.2773
17674THY    HP329155   5.118   7.344   7.164 -0.2314  1.6244 -1.1661
17674THY    HP429156   5.124   7.201   7.050 -0.5997  3.0546 -2.9124
17674THY    CP329157   5.375   7.104   7.150  0.3268  0.2086 -0.6229
17674THY    HP529158   5.443   7.184   7.116 -1.9653 -0.5745  1.1005
17674THY    HP629159   5.336   7.063   7.056 -0.0436  0.1283 -0.0929
17674THY    HP729160   5.424   7.031   7.216 -0.1937  0.4293 -0.7735
17674THY    CA329161   5.131   6.970   7.215  0.0649  0.6564  0.9897
17674THY    HA329162   5.163   6.947   7.114 -0.4022  0.4411  1.2795
17674THY    CA429163   5.057   6.871   7.282  0.4697 -0.9185 -0.1567
17674THY    HA429164   5.013   6.782   7.238 -0.9225 -0.3140  0.1997
17674THY    CA529165   5.022   6.886   7.416 -0.0955  0.7709 -0.0748
17674THY    CM129166   4.952   6.777   7.486  0.0373 -0.0006 -0.4253
17674THY    HM129167   5.024   6.727   7.551  1.4265 -1.0826  0.1234
17674THY    HM229168   4.911   6.701   7.419 -2.0170 -0.6437  1.1389
17674THY    HM329169   4.871   6.820   7.547  2.3020  1.4656  2.1352
17674THY    CA629170   5.046   7.008   7.476 -0.1108  0.4427 -0.2917
17674THY    HA629171   5.021   7.021   7.581 -0.7267  0.2833 -0.1237
17675THY      O29172   1.569   7.162   5.938  0.1440 -0.4006 -0.3577
17675THY     HO29173   1.544   7.087   5.882  0.4478 -1.2752  0.1858
17675THY    CA129174   1.563   7.120   6.067 -1.1683 -0.1665  0.4936
17675THY    CA229175   1.583   7.211   6.172  0.0914 -0.8383  0.0083
17675THY    CP129176   1.614   7.356   6.136  0.1615 -0.1524  0.1951
17675THY    HP129177   1.606   7.380   6.030 -0.1497 -0.0469  0.5786
17675THY    CP229178   1.760   7.403   6.175  0.6830 -0.0742  0.8020
17675THY    HP229179   1.785   7.505   6.145  0.5704  1.2887  1.2598
17675THY    HP329180   1.833   7.339   6.123  2.4767  3.1677 -0.0300
17675THY    HP429181   1.784   7.391   6.282  0.1911 -0.1085 -0.7079
17675THY    CP329182   1.510   7.454   6.204 -0.1341  1.1653 -0.1491
17675THY    HP529183   1.527   7.558   6.174  2.1061  1.2014 -0.4651
17675THY    HP629184   1.501   7.443   6.313 -0.3237  0.9783 -2.5311
17675THY    HP729185   1.409   7.433   6.167 -0.6202  0.8126  2.5573
17675THY    CA329186   1.571   7.155   6.303 -0.1450  0.1160 -0.5491
17675THY    HA329187   1.580   7.222   6.388  0.5680 -0.3694 -0.0049
17675THY    CA429188   1.527   7.027   6.323  0.3992  0.4434  0.1605
17675THY    HA429189   1.513   6.982   6.421 -1.3214 -0.5843 -1.7069
17675THY    CA529190   1.507   6.940   6.215  0.3405 -0.9390 -0.5965
17675THY    CM129191   1.452   6.801   6.241 -0.4709 -0.1805 -0.3381
17675THY    HM129192   1.383   6.806   6.326  0.2550  0.3614  1.3158
17675THY    HM229193   1.528   6.725   6.263 -1.3717  0.7875 -0.9756
17675THY    HM329194   1.383   6.771   6.162 -1.2901  0.0084  0.9690
17675THY    CA629195   1.529   6.985   6.087 -0.0689  0.2192 -0.4808
17675THY    HA629196   1.507   6.923   6.001  0.4732  1.4695 -2.4743
17676THY      O29197   1.922   7.990   5.844  0.0491 -0.1363 -0.6768
17676THY     HO29198   1.976   8.046   5.786 -0.5760 -0.4370 -0.3795
17676THY    CA129199   1.800   8.050   5.877 -0.9194  0.6042 -0.7526
17676THY    CA229200   1.704   7.984   5.961 -0.1718 -0.1113 -0.1962
17676THY    CP129201   1.732   7.851   6.023  0.3346 -0.2691  0.5620
17676THY    HP129202   1.828   7.816   5.982  0.9957  1.4813  0.2090
17676THY    CP229203   1.623   7.749   5.979  0.3533  0.3345 -0.7907
17676THY    HP229204   1.673   7.653   5.966 -0.3943 -1.6186 -0.9573
17676THY    HP329205   1.572   7.776   5.885  2.0096 -0.5447 -0.5532
17676THY    HP429206   1.541   7.748   6.051 -0.5085 -0.5775  0.7568
17676THY    CP329207   1.737   7.843   6.180 -0.0997  0.7604 -0.4654
17676THY    HP529208   1.640   7.849   6.231 -0.2438  0.5204 -0.7804
17676THY    HP629209   1.783   7.934   6.222  1.1270 -1.4920  0.0255
17676THY    HP729210   1.793   7.755   6.212 -0.1913 -0.5118 -1.0001
17676THY    CA329211   1.582   8.051   5.987  0.2063  0.0364 -0.4030
17676THY    HA329212   1.496   8.015   6.042  0.9902  1.7444  0.2102
17676THY    CA429213   1.556   8.170   5.914 -0.2789  0.0801  0.5118
17676THY    HA429214   1.464   8.223   5.935  0.5484 -0.6514  2.3120
17676THY    CA529215   1.645   8.225   5.820  0.5136  0.1175 -0.8018
17676THY    CM129216   1.621   8.351   5.735  0.5062  0.6437  0.3967
17676THY    HM129217   1.693   8.352   5.652 -0.9350 -0.7069 -1.4460
17676THY    HM229218   1.625   8.448   5.786  1.1540 -1.0119  1.2783
17676THY    HM329219   1.520   8.348   5.691 -0.1453  1.8328  2.5437
17676THY    CA629220   1.774   8.167   5.810  0.8283 -0.1166 -0.4867
17676THY    HA629221   1.841   8.205   5.733 -0.6909  0.3010  3.4189
17677THY      O29222   6.451   1.935   6.746  0.1234  0.2598 -0.3153
17677THY     HO29223   6.505   2.007   6.782  0.4393 -0.7958 -0.0135
17677THY    CA129224   6.524   1.832   6.700  0.6134  0.0358  0.0134
17677THY    CA229225   6.470   1.702   6.701  0.7727  0.4264 -0.1944
17677THY    CP129226   6.337   1.663   6.767  0.4894 -0.3870  0.3178
17677THY    HP129227   6.280   1.750   6.801  0.1608 -1.2502  0.4515
17677THY    CP229228   6.364   1.571   6.883  0.4172  0.4831  0.2980
17677THY    HP229229   6.278   1.552   6.949 -0.2658 -0.9367 -1.8666
17677THY    HP329230   6.447   1.621   6.935 -0.7397  1.5619  1.1440
17677THY    HP429231   6.405   1.475   6.849 -1.3480  0.1690 -0.3747
17677THY    CP329232   6.241   1.597   6.663 -0.3069 -0.7989 -1.3451
17677THY    HP529233   6.162   1.559   6.728  0.5619  0.0149 -1.8163
17677THY    HP629234   6.286   1.512   6.610 -0.9345 -2.4955 -0.6549
17677THY    HP729235   6.214   1.676   6.593  0.0478 -0.4521 -0.9096
17677THY    CA329236   6.545   1.593   6.640 -0.0031 -0.5696  0.1008
17677THY    HA329237   6.512   1.490   6.650 -1.0435  1.6360  0.5837
17677THY    CA429238   6.677   1.622   6.586  0.1658  0.4956 -0.2568
17677THY    HA429239   6.748   1.546   6.552 -0.3786  0.7748 -0.9045
17677THY    CA529240   6.717   1.756   6.574 -0.3004 -0.5043 -0.3934
17677THY    CM129241   6.834   1.791   6.494  0.2554 -0.2903 -0.3309
17677THY    HM129242   6.836   1.730   6.404 -1.4477 -1.7337  1.5905
17677THY    HM229243   6.927   1.776   6.551  0.1840 -0.2878 -0.7867
17677THY    HM329244   6.829   1.898   6.471 -0.9603  0.7452 -0.1332
17677THY    CA629245   6.644   1.858   6.633 -0.1919 -0.0484  0.7048
17677THY    HA629246   6.685   1.959   6.630 -0.7513 -0.5739  0.9214
17678THY      O29247   6.617   7.944   4.257  0.6837  0.6755  0.1793
17678THY     HO29248   6.545   7.934   4.192  0.5736  0.9360 -0.8127
17678THY    CA129249   6.548   8.013   4.357  0.0057  0.5464  0.2203
17678THY    CA229250   6.579   7.990   4.496 -0.1474 -0.0742 -0.6384
17678THY    CP129251   6.696   7.893   4.531 -0.2567 -0.1230 -0.0262
17678THY    HP129252   6.717   7.833   4.441 -0.6688 -1.9124  2.3302
17678THY    CP229253   6.687   7.782   4.645 -0.2798 -0.2879 -0.4134
17678THY    HP229254   6.663   7.821   4.745 -0.0775  0.1168 -1.3005
17678THY    HP329255   6.784   7.731   4.654 -1.2049 -2.7221 -2.7810
17678THY    HP429256   6.614   7.703   4.630  0.0774  1.5904 -1.1477
17678THY    CP329257   6.817   7.981   4.548 -0.5561 -0.0657 -0.6144
17678THY    HP529258   6.897   7.914   4.581  0.0154 -0.9991 -0.4075
17678THY    HP629259   6.802   8.059   4.624  0.0310 -1.1051  0.5323
17678THY    HP729260   6.848   8.031   4.456 -0.4524  0.6510  0.6806
17678THY    CA329261   6.510   8.067   4.596  0.7074 -0.7224  0.2903
17678THY    HA329262   6.534   8.053   4.701 -1.2401 -0.0395  1.6185
17678THY    CA429263   6.403   8.150   4.554  0.7917  0.6144  0.0676
17678THY    HA429264   6.332   8.177   4.633  1.5839  0.9069  1.4269
17678THY    CA529265   6.368   8.156   4.415  0.7887  0.0706 -0.0352
17678THY    CM129266   6.261   8.250   4.373 -0.7023  0.9665  0.7525
17678THY    HM129267   6.182   8.193   4.323  0.1877  0.0216  0.2993
17678THY    HM229268   6.300   8.334   4.314 -0.2215  2.1992  1.4163
17678THY    HM329269   6.219   8.302   4.459 -3.2331  1.6627 -2.2050
17678THY    CA629270   6.440   8.088   4.315 -0.4050 -0.4004  0.8322
17678THY    HA629271   6.422   8.093   4.208  0.6801 -0.6679 -0.4484
17679THY      O29272   6.645   6.514   4.390  0.7136  0.4647  0.1177
17679THY     HO29273   6.571   6.482   4.336  0.3542 -0.3921  2.2556
17679THY    CA129274   6.576   6.577   4.489  0.7271  0.0786  0.9143
17679THY    CA229275   6.605   6.696   4.553  0.5830  0.1822  0.2532
17679THY    CP129276   6.741   6.775   4.525 -0.5436 -0.6207  0.0017
17679THY    HP129277   6.773   6.735   4.428 -0.5318 -0.7661  0.3584
17679THY    CP229278   6.836   6.740   4.641 -0.0172  0.3986 -0.6988
17679THY    HP229279   6.930   6.796   4.639  0.0972 -2.6933 -0.8170
17679THY    HP329280   6.868   6.636   4.628  3.6701  1.7230  0.1276
17679THY    HP429281   6.773   6.757   4.729 -0.1779 -0.2249  2.5138
17679THY    CP329282   6.734   6.926   4.515  0.0061 -0.2853 -0.4789
17679THY    HP529283   6.669   6.974   4.590 -0.2626  0.1184 -1.4509
17679THY    HP629284   6.710   6.950   4.411 -0.4432  0.1199  0.9711
17679THY    HP729285   6.835   6.968   4.525 -1.3142 -0.5592  3.1257
17679THY    CA329286   6.509   6.755   4.642 -0.6734  0.7431 -0.4482
17679THY    HA329287   6.515   6.855   4.683 -1.3827  0.8718 -0.4510
17679THY    CA429288   6.383   6.696   4.650  0.2819 -0.3671 -0.5074
17679THY    HA429289   6.308   6.754   4.703 -1.4538 -2.4713 -0.6789
17679THY    CA529290   6.347   6.578   4.584 -1.5572 -0.0215 -0.8126
17679THY    CM129291   6.204   6.533   4.592 -0.4704 -0.3434 -0.3192
17679THY    HM129292   6.138   6.613   4.628  2.2654 -0.2546  2.0718
17679THY    HM229293   6.199   6.441   4.651 -1.8351 -0.2579 -0.2201
17679THY    HM329294   6.165   6.502   4.494  0.4557 -0.7135 -0.3402
17679THY    CA629295   6.447   6.520   4.503 -0.1973 -0.4141  0.4582
17679THY    HA629296   6.428   6.435   4.438 -1.4481 -2.4061  2.1687
17680THY      O29297   3.725   9.102   3.982  0.1113  0.3038  0.6773
17680THY     HO29298   3.809   9.147   3.959  0.5447  0.3719 -0.0732
17680THY    CA129299   3.640   9.129   3.883 -0.1702  0.3067 -0.4019
17680THY    CA229300   3.512   9.079   3.879 -0.6194 -0.1887 -0.1511
17680THY    CP129301   3.463   8.986   3.997  0.1244  0.7020 -0.2481
17680THY    HP129302   3.537   8.983   4.078 -0.1400  0.9596  0.0096
17680THY    CP229303   3.427   8.840   3.960 -0.4635  0.0935  0.8947
17680THY    HP229304   3.362   8.831   3.872  0.1834 -0.3596  0.6038
17680THY    HP329305   3.385   8.783   4.044  1.1164  1.3331  1.5048
17680THY    HP429306   3.522   8.790   3.939 -0.0534 -0.2498  1.8077
17680THY    CP329307   3.341   9.062   4.050 -1.1641 -0.2548  0.0118
17680THY    HP529308   3.343   9.031   4.155  2.4334 -0.0558  0.4744
17680THY    HP629309   3.242   9.036   4.011 -0.6266 -1.5357 -0.1505
17680THY    HP729310   3.359   9.170   4.041 -1.3682 -1.3074 -0.0352
17680THY    CA329311   3.427   9.111   3.774  0.2110  0.7553  0.1136
17680THY    HA329312   3.326   9.071   3.766  0.2882 -1.6638  0.2563
17680THY    CA429313   3.478   9.197   3.676 -0.3743 -0.1383  0.8336
17680THY    HA429314   3.414   9.243   3.602 -0.4368 -0.0618  0.8686
17680THY    CA529315   3.609   9.248   3.682 -0.3187  0.1272 -0.1805
17680THY    CM129316   3.659   9.336   3.576 -0.5744  0.0174  0.0244
17680THY    HM129317   3.766   9.355   3.584 -0.5680  0.2612 -0.1096
17680THY    HM229318   3.597   9.426   3.573  0.7240  1.3134  1.0042
17680THY    HM329319   3.652   9.282   3.480  1.7839  1.5502 -3.3721
17680THY    CA629320   3.690   9.211   3.780 -0.2917  0.0647  0.0957
17680THY    HA629321   3.792   9.245   3.796 -0.2528  4.2210 -1.3328
17681THY      O29322   2.128   1.858   5.629  0.0657 -0.0256  0.1265
17681THY     HO29323   2.071   1.797   5.579 -1.2569  0.8979  0.5489
17681THY    CA129324   2.045   1.931   5.707  0.0259 -0.5768  0.4602
17681THY    CA229325   2.094   2.050   5.773 -0.3107  0.3401 -0.2107
17681THY    CP129326   2.240   2.082   5.749  0.1513 -0.2289 -0.3568
17681THY    HP129327   2.282   2.030   5.662  1.2260 -0.4811  0.8633
17681THY    CP229328   2.328   2.050   5.869  0.4058  0.4103  0.0876
17681THY    HP229329   2.298   2.092   5.966  2.0236  0.0668  2.1536
17681THY    HP329330   2.431   2.078   5.845 -0.1243  0.6559  2.4512
17681THY    HP429331   2.327   1.940   5.873 -0.2969 -0.3858  0.0545
17681THY    CP329332   2.267   2.223   5.694  0.8150 -1.3907 -0.1791
17681THY    HP529333   2.197   2.249   5.614  2.0656 -2.2183  0.6945
17681THY    HP629334   2.369   2.235   5.656  0.9151 -0.6221  1.8171
17681THY    HP729335   2.242   2.297   5.771  0.4533 -1.4843 -0.1998
17681THY    CA329336   2.014   2.118   5.863 -0.3277 -0.0999  0.7612
17681THY    HA329337   2.059   2.192   5.929 -0.5924  1.0141 -0.0319
17681THY    CA429338   1.880   2.070   5.878  0.6931 -0.2086  0.5263
17681THY    HA429339   1.815   2.126   5.945 -1.2500 -0.9864 -0.6920
17681THY    CA529340   1.836   1.954   5.813 -0.1291  0.5159  0.2134
17681THY    CM129341   1.700   1.902   5.834  0.1127  0.2976  0.2433
17681THY    HM129342   1.626   1.979   5.862  0.4332 -2.4723  1.6669
17681THY    HM229343   1.703   1.830   5.917  3.5492 -2.0182 -2.5743
17681THY    HM329344   1.668   1.857   5.740  0.5140  1.0528 -1.7036
17681THY    CA629345   1.917   1.875   5.734  0.0937  0.6373 -0.1834
17681THY    HA629346   1.887   1.780   5.692  1.4656 -1.8123  0.3973
17682THY      O29347   8.914   8.569   6.850 -0.1902 -0.9414 -0.3793
17682THY     HO29348   8.861   8.592   6.772 -0.1871 -0.6114  0.8319
17682THY    CA129349   9.045   8.548   6.814  0.0816 -0.3218 -0.4277
17682THY    CA229350   9.141   8.510   6.911 -0.5643 -0.2021  0.2703
17682THY    CP129351   9.089   8.466   7.052  0.2836  0.2366 -0.6861
17682THY    HP129352   9.018   8.536   7.097  1.7596  1.0047  0.3736
17682THY    CP229353   9.201   8.467   7.157  0.6801  0.5115  0.0400
17682THY    HP229354   9.166   8.420   7.250  1.7654  0.9267  0.0264
17682THY    HP329355   9.235   8.570   7.174  0.1901 -1.8551  0.6544
17682THY    HP429356   9.288   8.411   7.121 -1.9458  0.0544 -4.1661
17682THY    CP329357   9.042   8.318   7.025  0.4662 -0.1212  0.4992
17682THY    HP529358   9.117   8.271   6.962  1.6753  0.7194  1.2369
17682THY    HP629359   8.954   8.320   6.959 -0.0745  0.3192 -3.0058
17682THY    HP729360   9.025   8.255   7.113  2.1638 -1.4991 -2.0143
17682THY    CA329361   9.275   8.497   6.866  0.0839 -0.2397  1.2054
17682THY    HA329362   9.354   8.457   6.929 -2.7015  2.1272 -1.0102
17682THY    CA429363   9.301   8.514   6.731  0.2990  0.3033  0.9986
17682THY    HA429364   9.397   8.475   6.699 -1.1520  0.7679 -3.5615
17682THY    CA529365   9.204   8.551   6.639  0.3845 -0.0995  0.4139
17682THY    CM129366   9.243   8.562   6.497 -1.0354 -0.5052 -0.4347
17682THY    HM129367   9.317   8.495   6.451 -0.6405 -1.3041  0.5113
17682THY    HM229368   9.256   8.667   6.467  0.9827 -0.8108 -0.7275
17682THY    HM329369   9.151   8.540   6.441 -2.3779 -0.4546  4.0125
17682THY    CA629370   9.074   8.568   6.681  0.6291 -0.3583 -0.4968
17682THY    HA629371   8.992   8.600   6.616 -0.4380  1.6966  1.2155
17683THY      O29372   3.154   2.969   3.601  0.0270  0.0400  0.6713
17683THY     HO29373   3.246   2.991   3.626 -0.5285  1.0114  2.0475
17683THY    CA129374   3.097   2.970   3.721  0.4347  0.1877  0.0475
17683THY    CA229375   2.982   2.895   3.748 -0.2571  0.0496 -0.2506
17683THY    CP129376   2.927   2.796   3.642  0.0808  0.1774  0.2151
17683THY    HP129377   2.991   2.796   3.553 -0.5126 -0.2742  1.6836
17683THY    CP229378   2.788   2.831   3.597  0.3463 -0.2106 -1.0769
17683THY    HP229379   2.724   2.783   3.672  1.3914  1.1272 -0.4401
17683THY    HP329380   2.762   2.788   3.499  1.6035 -0.0395 -2.3001
17683THY    HP429381   2.784   2.941   3.595  2.9674  0.2321 -0.9121
17683THY    CP329382   2.922   2.649   3.695 -0.1013  0.3319  0.0948
17683THY    HP529383   3.020   2.633   3.740 -1.0561  2.7937  0.6817
17683THY    HP629384   2.893   2.582   3.613 -1.2257  2.1994 -1.8181
17683THY    HP729385   2.840   2.649   3.768 -0.9954 -0.6311  0.7161
17683THY    CA329386   2.911   2.923   3.872  0.4584  0.3176  0.1235
17683THY    HA329387   2.810   2.886   3.884 -0.2835 -1.5673  1.3628
17683THY    CA429388   2.959   3.023   3.961  0.5880  0.3620 -0.1534
17683THY    HA429389   2.910   3.060   4.051  1.1703  0.9732 -0.8274
17683THY    CA529390   3.080   3.093   3.936  0.4056  1.2749  0.1578
17683THY    CM129391   3.142   3.195   4.027 -0.1336  0.7007 -0.5460
17683THY    HM129392   3.146   3.164   4.132  2.3951  1.2179  1.2849
17683THY    HM229393   3.086   3.288   4.013 -0.8379  1.3028 -0.8670
17683THY    HM329394   3.247   3.216   4.006 -0.6602 -2.4568 -0.5843
17683THY    CA629395   3.144   3.071   3.806  0.0586 -0.6446  0.7556
17683THY    HA629396   3.227   3.135   3.778 -0.6235 -0.8537  1.5698
17684THY      O29397   5.276   6.338   3.071 -0.1012 -0.2323 -0.4726
17684THY     HO29398   5.308   6.327   2.980  0.5939 -0.0040 -0.3802
17684THY    CA129399   5.142   6.349   3.080 -0.6289  0.2484 -0.3948
17684THY    CA229400   5.087   6.376   3.207 -0.3864  1.0349 -0.4630
17684THY    CP129401   5.182   6.373   3.326 -0.0321 -0.1471 -0.5530
17684THY    HP129402   5.284   6.341   3.300  0.0945 -0.2898 -0.0391
17684THY    CP229403   5.142   6.270   3.439  0.0018  0.8718  0.3650
17684THY    HP229404   5.056   6.302   3.498  0.0344  0.0241  2.0946
17684THY    HP329405   5.222   6.242   3.508  1.2895  0.0671  1.9269
17684THY    HP429406   5.113   6.172   3.399  0.5260  1.9929 -0.2680
17684THY    CP329407   5.190   6.515   3.396 -1.2056 -0.5243  0.8579
17684THY    HP529408   5.218   6.589   3.320 -1.4077  1.9119  3.6170
17684THY    HP629409   5.257   6.506   3.482  1.2368 -2.4981 -1.4212
17684THY    HP729410   5.094   6.532   3.446 -0.6972  1.0358 -0.5720
17684THY    CA329411   4.948   6.394   3.212  0.5085 -0.1632  0.1688
17684THY    HA329412   4.904   6.398   3.312  0.2806 -0.3241  2.5429
17684THY    CA429413   4.874   6.405   3.097 -0.3693  1.0487 -0.5467
17684THY    HA429414   4.769   6.433   3.105 -0.4249 -0.9511 -0.0199
17684THY    CA529415   4.928   6.387   2.965 -0.6214 -0.0100 -0.2089
17684THY    CM129416   4.841   6.389   2.850 -0.4446  0.3311 -0.6130
17684THY    HM129417   4.859   6.301   2.788 -2.5348 -0.3409 -0.6215
17684THY    HM229418   4.863   6.477   2.790 -3.0417 -1.2435 -0.9290
17684THY    HM329419   4.736   6.365   2.874 -0.5257 -0.9354 -1.6290
17684THY    CA629420   5.068   6.344   2.961 -0.0611  0.0354  0.5067
17684THY    HA629421   5.111   6.316   2.865  1.5872  1.1631 -1.0208
17685THY      O29422   5.582   3.259   3.892  0.5904 -0.3423 -0.3777
17685THY     HO29423   5.601   3.326   3.960  2.4669 -0.7943 -0.4068
17685THY    CA129424   5.612   3.302   3.771 -0.0318  1.1738  0.4214
17685THY    CA229425   5.563   3.236   3.651 -0.7233  0.0309 -0.4922
17685THY    CP129426   5.463   3.118   3.655  0.3679 -0.7860 -0.4897
17685THY    HP129427   5.482   3.064   3.749 -2.5784  1.1503  1.5230
17685THY    CP229428   5.486   3.019   3.546 -0.5439 -0.0537  0.0774
17685THY    HP229429   5.421   2.934   3.569 -0.5078  2.4955  0.6574
17685THY    HP329430   5.592   2.991   3.541 -0.7640 -1.2168 -0.6102
17685THY    HP429431   5.462   3.053   3.444  1.0772 -0.6303 -0.4391
17685THY    CP329432   5.319   3.176   3.655  0.8880  0.0434 -0.0647
17685THY    HP529433   5.315   3.238   3.564  3.6125 -1.4751 -1.9202
17685THY    HP629434   5.288   3.234   3.742 -0.7185  0.7863 -1.9157
17685THY    HP729435   5.244   3.096   3.654  2.3413  1.9611 -1.5429
17685THY    CA329436   5.602   3.282   3.527  0.2767  0.4689  0.1378
17685THY    HA329437   5.579   3.228   3.435  2.3706 -1.1774  1.8414
17685THY    CA429438   5.691   3.398   3.514 -0.0774  0.6789  0.4512
17685THY    HA429439   5.724   3.423   3.413 -2.8610 -0.4474  0.0062
17685THY    CA529440   5.733   3.461   3.632  0.4580 -0.3700  0.3376
17685THY    CM129441   5.820   3.578   3.626  0.4970 -0.0628 -0.5358
17685THY    HM129442   5.924   3.562   3.596  1.7725  3.5188  0.2104
17685THY    HM229443   5.822   3.637   3.718 -2.4548  1.4787 -2.5859
17685THY    HM329444   5.780   3.647   3.550 -0.3855  0.1278 -0.8249
17685THY    CA629445   5.695   3.418   3.761  0.2530 -0.2660  0.1111
17685THY    HA629446   5.729   3.472   3.849 -1.5728  0.6792 -0.1893
17686THY      O29447   4.016   6.530   6.725  0.0423  0.2643  0.6732
17686THY     HO29448   4.069   6.471   6.669 -0.0669  1.1146 -0.2665
17686THY    CA129449   3.937   6.598   6.643  0.1905  0.3623 -0.5908
17686THY    CA229450   3.828   6.673   6.700 -0.3153 -0.4393 -0.7519
17686THY    CP129451   3.803   6.684   6.858 -0.5764  0.0066 -0.1283
17686THY    HP129452   3.896   6.661   6.912 -1.8832  2.7395  0.6782
17686THY    CP229453   3.690   6.597   6.908  0.0247 -0.3262  0.5058
17686THY    HP229454   3.713   6.492   6.886 -0.1675  2.7239 -0.2961
17686THY    HP329455   3.600   6.625   6.853 -0.1660 -1.4824 -2.0946
17686THY    HP429456   3.676   6.604   7.017  3.0956  0.1320  0.6944
17686THY    CP329457   3.779   6.829   6.911 -0.7818  0.4948 -0.9164
17686THY    HP529458   3.877   6.877   6.920 -1.5307 -1.0646  1.0763
17686THY    HP629459   3.737   6.850   7.010 -0.4721 -0.1748  4.2128
17686THY    HP729460   3.731   6.902   6.844  0.3332 -0.1413 -0.7561
17686THY    CA329461   3.740   6.734   6.610  0.4180  0.5076 -0.2511
17686THY    HA329462   3.661   6.798   6.647  2.8164  1.0128  2.6378
17686THY    CA429463   3.750   6.711   6.472  0.1123  0.1383  0.1733
17686THY    HA429464   3.684   6.753   6.397  0.8752 -0.9123 -0.4423
17686THY    CA529465   3.867   6.643   6.419  0.2543  0.5195 -0.5589
17686THY    CM129466   3.892   6.616   6.280 -0.5065  0.2436 -0.0644
17686THY    HM129467   3.801   6.580   6.233 -0.3449 -1.1684  1.2615
17686THY    HM229468   3.974   6.543   6.274 -0.9691  1.5146 -0.7040
17686THY    HM329469   3.910   6.709   6.224 -0.6296 -0.3051 -0.3722
17686THY    CA629470   3.946   6.587   6.509 -0.0487 -0.4612  0.3355
17686THY    HA629471   4.042   6.549   6.473 -0.4627 -0.2615 -0.9523
17687THY      O29472   2.937   6.471   2.345 -1.0555 -0.0188 -0.2099
17687THY     HO29473   2.975   6.532   2.410 -1.2758 -0.3473  0.2854
17687THY    CA129474   2.802   6.465   2.353  0.1494 -0.2125  0.2211
17687THY    CA229475   2.728   6.416   2.240  0.5542  0.4828 -0.1203
17687THY    CP129476   2.784   6.381   2.102  0.2944 -0.4617  0.1543
17687THY    HP129477   2.893   6.390   2.104  0.4308  0.3755 -1.2141
17687THY    CP229478   2.725   6.483   2.001  0.4456 -0.0594 -0.4041
17687THY    HP229479   2.710   6.584   2.042  0.8065  2.0141 -1.1504
17687THY    HP329480   2.623   6.453   1.978 -1.8062  3.2677  3.6259
17687THY    HP429481   2.797   6.504   1.920  0.1413 -0.1556  0.2799
17687THY    CP329482   2.757   6.233   2.054 -0.3573 -0.0174 -0.3106
17687THY    HP529483   2.664   6.232   1.997 -0.6729  0.4378  0.9489
17687THY    HP629484   2.744   6.172   2.144  1.7637  0.4180 -0.2178
17687THY    HP729485   2.843   6.193   1.998 -0.5902 -0.0110 -0.8197
17687THY    CA329486   2.590   6.409   2.260 -0.3776  0.4583  0.0046
17687THY    HA329487   2.521   6.381   2.180 -2.5699  2.2127  0.0795
17687THY    CA429488   2.534   6.439   2.384  0.3229  0.2145 -0.5268
17687THY    HA429489   2.427   6.427   2.399  0.6777  3.2862 -0.5740
17687THY    CA529490   2.611   6.481   2.491 -0.2315  0.4422 -0.0612
17687THY    CM129491   2.548   6.519   2.620 -0.4755  0.6705 -0.4928
17687THY    HM129492   2.449   6.476   2.636 -0.5965  0.5312 -0.2690
17687THY    HM229493   2.533   6.628   2.619  0.8568 -1.2066 -0.2745
17687THY    HM329494   2.613   6.493   2.704 -0.5843  1.9080  2.7888
17687THY    CA629495   2.750   6.494   2.475  0.0824 -0.5448  0.5861
17687THY    HA629496   2.805   6.551   2.549  0.8905  1.2368 -2.2961
17688THY      O29497   3.992   6.235   3.104 -0.2445 -0.0461 -0.3657
17688THY     HO29498   4.073   6.212   3.152  0.0900 -1.2515 -1.8027
17688THY    CA129499   3.993   6.167   2.988 -0.1484  0.1201  1.2670
17688THY    CA229500   3.938   6.216   2.868  0.5423 -0.0841  0.3452
17688THY    CP129501   3.837   6.336   2.872 -1.1584  0.3853  0.4756
17688THY    HP129502   3.821   6.371   2.974 -0.4381  0.3817  0.8244
17688THY    CP229503   3.703   6.291   2.815 -0.0125 -0.8904 -0.4217
17688THY    HP229504   3.631   6.372   2.828  0.0861  1.7563 -0.6611
17688THY    HP329505   3.657   6.221   2.885 -0.6403 -1.2272 -0.3494
17688THY    HP429506   3.716   6.257   2.712  1.2368 -0.9537  0.1904
17688THY    CP329507   3.902   6.460   2.813  0.2284  0.1393  0.3192
17688THY    HP529508   3.979   6.501   2.878 -0.7942  1.6712 -0.1192
17688THY    HP629509   3.827   6.539   2.798  0.3087 -2.3084  0.0371
17688THY    HP729510   3.931   6.447   2.708  1.8339  0.2901  2.2351
17688THY    CA329511   3.958   6.151   2.751 -0.1127 -0.3417 -0.1326
17688THY    HA329512   3.930   6.204   2.660  1.8742  0.5076  2.5990
17688THY    CA429513   4.024   6.024   2.758 -0.3524 -0.4477  1.0929
17688THY    HA429514   4.040   5.970   2.665  1.9048  1.2003 -1.2629
17688THY    CA529515   4.074   5.973   2.881 -0.3318  0.8361 -0.0809
17688THY    CM129516   4.135   5.842   2.887  0.1629 -0.1837 -0.1540
17688THY    HM129517   4.238   5.850   2.852 -0.1451 -1.1573 -0.2528
17688THY    HM229518   4.085   5.776   2.815  1.6955 -1.2870 -0.1672
17688THY    HM329519   4.119   5.801   2.987 -2.1453 -0.9816 -1.3618
17688THY    CA629520   4.059   6.047   2.994 -0.7073  0.2646 -0.1392
17688THY    HA629521   4.081   6.007   3.093 -0.2435  0.1409 -0.2013
17689THY      O29522   2.875   1.983   4.578 -0.2862 -0.3204  0.2200
17689THY     HO29523   2.952   1.955   4.630 -0.4019 -0.2794 -0.0218
17689THY    CA129524   2.842   1.898   4.483  0.6838 -0.3184 -0.1128
17689THY    CA229525   2.721   1.916   4.405 -0.8028  1.2641 -0.1180
17689THY    CP129526   2.616   2.021   4.446 -0.9462 -0.4032 -0.3952
17689THY    HP129527   2.668   2.083   4.521  1.8880 -0.5445 -2.4412
17689THY    CP229528   2.501   1.954   4.525  0.1015 -0.5423 -0.1552
17689THY    HP229529   2.418   2.021   4.551 -0.0036  3.1085 -1.4805
17689THY    HP329530   2.543   1.904   4.613 -0.9268  0.7700  1.1941
17689THY    HP429531   2.454   1.874   4.466  1.0353 -1.0380 -0.3487
17689THY    CP329532   2.567   2.112   4.333  0.2557  0.6621 -0.2832
17689THY    HP529533   2.496   2.181   4.379  1.3601  0.7927  0.7969
17689THY    HP629534   2.521   2.043   4.262  0.0907  0.2081  0.2856
17689THY    HP729535   2.647   2.170   4.285 -0.5107 -1.6113 -1.0115
17689THY    CA329536   2.699   1.819   4.300 -0.1044  0.3476  0.3079
17689THY    HA329537   2.606   1.823   4.243 -0.7181  1.1587 -1.4533
17689THY    CA429538   2.786   1.722   4.271  0.1416 -0.2448  0.0076
17689THY    HA429539   2.746   1.660   4.192 -1.5891 -0.7192  1.6215
17689THY    CA529540   2.896   1.702   4.350 -0.3734  0.0106  0.1797
17689THY    CM129541   2.994   1.598   4.327 -0.1277 -0.1107  0.4144
17689THY    HM129542   3.020   1.549   4.421 -1.0668  0.5975  1.2308
17689THY    HM229543   3.077   1.644   4.272 -1.1057 -0.1837  2.1912
17689THY    HM329544   2.961   1.532   4.246  1.9346 -2.0635  1.6251
17689THY    CA629545   2.928   1.789   4.455  0.2562  0.3816  0.9692
17689THY    HA629546   3.008   1.767   4.525  0.4306 -0.4481 -1.3990
17690THY      O29547   9.473   3.113   5.175  0.0445 -0.4385  0.3575
17690THY     HO29548   9.497   3.194   5.126  1.2159  0.6720  0.7172
17690THY    CA129549   9.366   3.055   5.116 -0.0810  0.1943 -0.0903
17690THY    CA229550   9.286   2.966   5.182  0.1260  0.3108 -1.0169
17690THY    CP129551   9.303   2.930   5.326  0.0500 -0.0800 -0.2592
17690THY    HP129552   9.394   2.970   5.371 -0.6615  0.3644  0.9221
17690THY    CP229553   9.311   2.785   5.357  0.9160  0.3312  0.0907
17690THY    HP229554   9.317   2.753   5.462 -0.3225  0.2232 -0.5887
17690THY    HP329555   9.390   2.732   5.303 -1.1476  0.0113 -2.9190
17690THY    HP429556   9.216   2.742   5.322  0.5428  1.2879  0.0992
17690THY    CP329557   9.188   2.987   5.401 -0.6118 -0.6962 -0.1329
17690THY    HP529558   9.173   3.094   5.384 -0.1980 -0.3419 -0.0166
17690THY    HP629559   9.221   2.992   5.506 -0.2094 -0.8018 -0.4447
17690THY    HP729560   9.094   2.931   5.402  0.1673  0.0958 -1.4724
17690THY    CA329561   9.171   2.907   5.116  0.0402  0.1853 -0.1471
17690THY    HA329562   9.105   2.840   5.171 -0.2524 -0.2612 -0.2340
17690THY    CA429563   9.139   2.946   4.987 -1.0569 -0.2541 -0.8354
17690THY    HA429564   9.056   2.903   4.930 -0.2332 -0.5998 -2.0438
17690THY    CA529565   9.220   3.039   4.918  0.8114  0.2359  0.1079
17690THY    CM129566   9.190   3.076   4.774 -0.1046 -0.3195 -0.1742
17690THY    HM129567   9.279   3.095   4.714 -0.1980 -0.9615 -1.6639
17690THY    HM229568   9.123   3.163   4.769  0.4834 -0.7572  0.2633
17690THY    HM329569   9.127   2.997   4.730  1.3771 -1.9649 -0.4982
17690THY    CA629570   9.335   3.091   4.979  0.4295  0.9048 -0.5856
17690THY    HA629571   9.392   3.168   4.928 -3.7556 -0.7611  1.7451
17691THY      O29572   8.246   2.123   6.534 -0.5697  0.4780  0.0256
17691THY     HO29573   8.306   2.110   6.609 -1.7264  1.8189  1.8779
17691THY    CA129574   8.314   2.206   6.456 -0.6271  0.2754 -0.1858
17691THY    CA229575   8.269   2.243   6.326 -0.2627 -0.0047  0.1969
17691THY    CP129576   8.139   2.187   6.269  0.3235  0.1406 -0.1721
17691THY    HP129577   8.134   2.079   6.287 -0.1814 -1.2138 -0.3923
17691THY    CP229578   8.118   2.215   6.118 -0.2712  0.2405 -0.5856
17691THY    HP229579   8.211   2.196   6.064  1.4106  1.9972  2.0755
17691THY    HP329580   8.089   2.319   6.098  0.6203  2.1137  0.0618
17691THY    HP429581   8.036   2.153   6.079  0.9797 -4.0962  0.1609
17691THY    CP329582   8.027   2.262   6.339 -0.0712 -0.3975  0.0647
17691THY    HP529583   8.039   2.366   6.307 -1.1837 -2.3406 -0.3379
17691THY    HP629584   8.041   2.250   6.447  0.8769 -0.4641  0.4959
17691THY    HP729585   7.928   2.229   6.304 -0.6410  0.4374  0.8518
17691THY    CA329586   8.355   2.331   6.257 -0.6363 -0.7235 -0.1952
17691THY    HA329587   8.328   2.379   6.163  0.0344  0.5237  2.8191
17691THY    CA429588   8.480   2.373   6.305 -0.7433 -0.1540 -0.1173
17691THY    HA429589   8.547   2.433   6.244 -1.5545 -0.8584  0.1071
17691THY    CA529590   8.507   2.337   6.442  0.9811  0.1579 -0.1297
17691THY    CM129591   8.639   2.369   6.504 -1.0975 -0.7075  0.3924
17691THY    HM129592   8.679   2.470   6.491  0.5498  0.5945 -0.0303
17691THY    HM229593   8.710   2.297   6.461  0.1077 -0.1764  1.2382
17691THY    HM329594   8.653   2.357   6.612 -0.8151 -0.4139  2.8102
17691THY    CA629595   8.427   2.261   6.518 -0.3908  0.3060  0.5062
17691THY    HA629596   8.456   2.242   6.621  2.2996 -0.4352  0.2846
17692THY      O29597   7.587   5.214   6.981  0.6600 -0.1729  0.2640
17692THY     HO29598   7.589   5.307   7.008 -1.1122 -0.1311  0.3135
17692THY    CA129599   7.618   5.132   7.082  0.4717  0.1489  0.3163
17692THY    CA229600   7.605   5.172   7.215 -0.4963  0.1946  0.2703
17692THY    CP129601   7.554   5.306   7.264 -0.5191 -0.4771  0.4017
17692THY    HP129602   7.565   5.380   7.184  0.1301 -1.2519 -0.5092
17692THY    CP229603   7.626   5.371   7.386 -0.2345  0.4605  0.4287
17692THY    HP229604   7.606   5.478   7.379  0.0532  1.6944  0.5843
17692THY    HP329605   7.735   5.357   7.379  0.1157 -0.7446  3.1821
17692THY    HP429606   7.594   5.317   7.476  1.2605  0.2701 -0.8520
17692THY    CP329607   7.404   5.299   7.315 -0.1662  1.0003  0.1659
17692THY    HP529608   7.362   5.400   7.324 -1.0486  2.8111 -0.3112
17692THY    HP629609   7.394   5.251   7.413 -1.1779 -0.4037 -2.7053
17692THY    HP729610   7.340   5.244   7.245  1.6502  1.3250 -2.5275
17692THY    CA329611   7.657   5.087   7.312  0.3081  0.1217  0.3551
17692THY    HA329612   7.665   5.117   7.416  1.1743 -0.3231  1.8164
17692THY    CA429613   7.694   4.955   7.283  0.4015  0.5726 -0.3448
17692THY    HA429614   7.730   4.895   7.366  2.3588 -0.6706 -0.9427
17692THY    CA529615   7.686   4.910   7.153  0.1128 -0.2043 -0.4087
17692THY    CM129616   7.711   4.763   7.120 -0.6879 -0.4156  0.2407
17692THY    HM129617   7.675   4.693   7.196  2.5526 -0.6176 -1.8635
17692THY    HM229618   7.819   4.747   7.127 -0.8157  4.7596 -0.0216
17692THY    HM329619   7.660   4.730   7.029 -2.2236 -0.1130  1.6296
17692THY    CA629620   7.652   5.001   7.048 -0.0209  0.1768 -0.2232
17692THY    HA629621   7.662   4.972   6.944  2.0426  0.1214  0.5416
17693THY      O29622   7.087   2.663   2.291 -0.2044 -0.0835  0.0187
17693THY     HO29623   6.996   2.685   2.317 -0.2437  0.2850 -0.5381
17693THY    CA129624   7.109   2.528   2.316  0.3895  0.0236 -0.4408
17693THY    CA229625   7.238   2.469   2.319 -0.2099 -0.2429 -0.4091
17693THY    CP129626   7.355   2.563   2.292  0.6174  0.8193 -0.3845
17693THY    HP129627   7.322   2.662   2.323 -1.7362 -0.9102 -0.5306
17693THY    CP229628   7.383   2.581   2.144 -0.1565 -0.0161  0.2699
17693THY    HP229629   7.309   2.648   2.098 -0.4551 -0.6891 -0.5049
17693THY    HP329630   7.390   2.479   2.106 -0.0629 -1.1200  0.6788
17693THY    HP429631   7.479   2.634   2.135 -0.4409 -0.7066  0.6774
17693THY    CP329632   7.480   2.513   2.365  0.6340 -0.6354  0.0182
17693THY    HP529633   7.505   2.408   2.344 -3.3595 -0.1285 -1.1974
17693THY    HP629634   7.459   2.531   2.471 -1.1958 -0.8297 -0.7507
17693THY    HP729635   7.571   2.571   2.347  0.8649 -0.5669 -0.3200
17693THY    CA329636   7.249   2.326   2.330  0.6096  0.3469 -0.4063
17693THY    HA329637   7.342   2.269   2.323 -0.1231 -0.7184 -1.4906
17693THY    CA429638   7.129   2.255   2.338  0.2468 -0.0120  0.0415
17693THY    HA429639   7.141   2.149   2.360  0.8142 -1.4979 -0.2402
17693THY    CA529640   7.006   2.315   2.333  0.6428 -0.3665  0.2412
17693THY    CM129641   6.879   2.235   2.355 -0.0265  0.3230 -0.2582
17693THY    HM129642   6.892   2.177   2.447 -0.3957  2.4232  2.7422
17693THY    HM229643   6.857   2.170   2.269  2.6328 -0.1660 -0.6327
17693THY    HM329644   6.801   2.311   2.359  1.6025 -4.2370  2.0426
17693THY    CA629645   6.995   2.450   2.307 -0.5754 -0.5381  0.5437
17693THY    HA629646   6.898   2.492   2.285 -1.9764 -1.0685 -2.7059
17694THY      O29647   0.830   7.523   5.684  0.4726 -0.2663  0.1673
17694THY     HO29648   0.878   7.605   5.668 -1.2571 -0.8242  1.1149
17694THY    CA129649   0.857   7.444   5.584 -0.4799 -0.6184 -0.0882
17694THY    CA229650   0.798   7.319   5.565 -0.1056  0.2793  0.1371
17694THY    CP129651   0.691   7.263   5.660  0.1577  0.2669  0.2462
17694THY    HP129652   0.703   7.315   5.755  1.0271 -0.4971  1.5197
17694THY    CP229653   0.711   7.112   5.689 -0.2498  0.6069  0.5868
17694THY    HP229654   0.692   7.064   5.592 -0.0125  0.1269  1.4342
17694THY    HP329655   0.641   7.089   5.770 -0.2497  0.1523 -1.1743
17694THY    HP429656   0.814   7.090   5.719  0.0391 -0.6384  0.1221
17694THY    CP329657   0.545   7.289   5.611  0.6864  0.2648 -0.3146
17694THY    HP529658   0.545   7.397   5.592 -0.0225 -0.4616 -0.4257
17694THY    HP629659   0.469   7.255   5.683  0.4167 -0.7447 -1.9549
17694THY    HP729660   0.530   7.238   5.515  1.2791 -0.6869  1.2596
17694THY    CA329661   0.837   7.247   5.455  0.6282 -0.0472  0.4959
17694THY    HA329662   0.787   7.156   5.425 -0.4492 -3.5574  2.0624
17694THY    CA429663   0.943   7.286   5.374 -0.0740 -0.1858  0.0888
17694THY    HA429664   0.969   7.227   5.287  0.7462  0.2171 -0.1550
17694THY    CA529665   1.008   7.412   5.397 -0.1735 -0.9658  0.6666
17694THY    CM129666   1.128   7.461   5.320 -0.1919 -0.4235  0.5908
17694THY    HM129667   1.229   7.449   5.362 -1.4144  1.9725 -2.4330
17694THY    HM229668   1.117   7.568   5.297 -0.9575  0.6026  0.7487
17694THY    HM329669   1.134   7.404   5.227  0.8615 -0.6608  1.0531
17694THY    CA629670   0.963   7.491   5.507  0.6830  0.4687  0.1177
17694THY    HA629671   1.006   7.590   5.517 -1.4862  0.0658  1.1563
17695THY      O29672   8.565   1.382   4.901  0.2175 -0.3080  0.3508
17695THY     HO29673   8.655   1.347   4.907 -0.7974  1.3583 -2.3134
17695THY    CA129674   8.553   1.435   4.776  0.0864  0.0602 -0.6509
17695THY    CA229675   8.430   1.432   4.711 -0.3485 -0.0498 -0.2724
17695THY    CP129676   8.304   1.363   4.768 -1.1198  0.4549  0.0425
17695THY    HP129677   8.343   1.289   4.838  1.2660  1.7229  2.3623
17695THY    CP229678   8.216   1.300   4.661 -0.0226 -0.0544  0.3842
17695THY    HP229679   8.254   1.221   4.596 -0.2512  1.7102 -1.2515
17695THY    HP329680   8.175   1.376   4.592 -2.8252  0.8377 -0.2174
17695THY    HP429681   8.125   1.264   4.710 -0.2830 -0.5128  0.4076
17695THY    CP329682   8.219   1.458   4.847  0.7296 -0.1684 -0.3779
17695THY    HP529683   8.183   1.538   4.781 -1.1041  1.5053  0.2509
17695THY    HP629684   8.283   1.504   4.924 -0.9786  2.9802 -2.8834
17695THY    HP729685   8.143   1.409   4.907  0.2089  0.0914  0.7096
17695THY    CA329686   8.424   1.502   4.590 -0.4455  0.5059 -0.5535
17695THY    HA329687   8.331   1.516   4.536 -1.2081  1.7829 -0.5202
17695THY    CA429688   8.537   1.562   4.538 -0.2904  0.1368 -0.5001
17695THY    HA429689   8.538   1.628   4.452  0.4177  0.7475  0.3078
17695THY    CA529690   8.664   1.553   4.605  0.6214  0.1583  0.0146
17695THY    CM129691   8.791   1.598   4.538  0.0232  0.3569 -0.4135
17695THY    HM129692   8.784   1.705   4.514  0.2555 -0.1121 -0.5024
17695THY    HM229693   8.807   1.542   4.445  2.3866 -0.7206  1.8242
17695THY    HM329694   8.879   1.592   4.603 -0.2600  1.0670  2.0025
17695THY    CA629695   8.671   1.485   4.725  0.0241  0.7360 -0.3783
17695THY    HA629696   8.764   1.466   4.778  0.4443 -0.7331 -2.7838
17696THY      O29697   2.299   2.569   3.887  0.2280  0.4022 -0.2761
17696THY     HO29698   2.308   2.660   3.922 -0.2767  1.1847 -0.5187
17696THY    CA129699   2.169   2.534   3.876 -0.8771 -0.2701 -0.1827
17696THY    CA229700   2.140   2.405   3.835 -0.7888 -0.2180  0.0171
17696THY    CP129701   2.263   2.317   3.778 -0.0092 -0.0728  0.5608
17696THY    HP129702   2.349   2.344   3.841 -0.5974  1.3693 -0.7643
17696THY    CP229703   2.300   2.338   3.626  0.5385 -0.2406  0.3822
17696THY    HP229704   2.340   2.435   3.597  2.3909  1.3903  0.1662
17696THY    HP329705   2.211   2.317   3.566  0.7816  0.1664 -2.2121
17696THY    HP429706   2.373   2.259   3.606  1.0409  1.7256  0.2930
17696THY    CP329707   2.228   2.163   3.795 -0.1725 -0.6720  0.0515
17696THY    HP529708   2.197   2.149   3.899 -1.2885 -1.1433 -1.1196
17696THY    HP629709   2.314   2.097   3.776 -0.5157 -0.9753 -0.3166
17696THY    HP729710   2.155   2.125   3.724 -0.7282  0.1758 -0.5145
17696THY    CA329711   2.007   2.361   3.840  0.0243 -0.6544 -0.3118
17696THY    HA329712   1.974   2.264   3.803 -0.6616 -2.4920  0.5715
17696THY    CA429713   1.906   2.455   3.888 -0.3656 -0.5061  0.8404
17696THY    HA429714   1.806   2.416   3.872 -0.7163 -0.1536  1.5796
17696THY    CA529715   1.939   2.581   3.923  0.4284 -0.0102 -0.6910
17696THY    CM129716   1.838   2.687   3.945  0.1443  0.2554  0.6244
17696THY    HM129717   1.788   2.686   4.043 -1.0975 -0.3092 -2.4470
17696THY    HM229718   1.765   2.677   3.863 -0.9797  1.4605 -1.9831
17696THY    HM329719   1.874   2.790   3.938 -0.1777 -0.0726  0.7198
17696THY    CA629720   2.072   2.620   3.917 -0.4705 -0.4894  0.4491
17696THY    HA629721   2.103   2.722   3.939  0.8957  0.5874 -0.1712
17697THY      O29722   5.731   4.768   1.963 -0.6796  0.2666  0.2307
17697THY     HO29723   5.682   4.840   1.920  0.1599  1.9367  1.8847
17697THY    CA129724   5.732   4.780   2.101 -0.0419 -0.3820 -0.9441
17697THY    CA229725   5.791   4.688   2.186 -0.0732  0.0351 -0.0871
17697THY    CP129726   5.869   4.568   2.132 -0.2756  0.6730  0.1343
17697THY    HP129727   5.878   4.574   2.023 -0.7310  0.5914 -0.5080
17697THY    CP229728   5.786   4.443   2.142 -1.0387 -0.7382  0.0316
17697THY    HP229729   5.691   4.453   2.089  0.4455 -3.7031 -0.5466
17697THY    HP329730   5.770   4.435   2.250 -1.6796 -0.8847 -0.7383
17697THY    HP429731   5.838   4.349   2.122 -0.7202  1.3409 -0.2877
17697THY    CP329732   6.006   4.551   2.187 -0.5358 -0.2702 -0.5594
17697THY    HP529733   6.069   4.625   2.136 -0.0366  0.5075 -0.4301
17697THY    HP629734   6.048   4.453   2.163  0.9096  2.4695 -0.7054
17697THY    HP729735   6.007   4.571   2.295  2.8807 -0.2006 -0.5673
17697THY    CA329736   5.787   4.712   2.323  0.0936  0.2413 -1.0885
17697THY    HA329737   5.832   4.641   2.391  0.1006  1.4159  0.0056
17697THY    CA429738   5.730   4.837   2.372 -0.1312  0.3572  0.2979
17697THY    HA429739   5.725   4.860   2.478  2.3652  0.8319 -1.0142
17697THY    CA529740   5.675   4.925   2.285  0.9063  0.9204  0.4014
17697THY    CM129741   5.613   5.053   2.338  0.2144 -0.5281 -0.6363
17697THY    HM129742   5.512   5.067   2.298  0.7406 -2.2910 -1.5516
17697THY    HM229743   5.675   5.139   2.310 -0.5468 -0.1767  0.0439
17697THY    HM329744   5.603   5.054   2.447 -1.9351 -0.6840  0.6634
17697THY    CA629745   5.668   4.897   2.152  0.0209  0.0613 -0.1259
17697THY    HA629746   5.618   4.969   2.088  1.1736 -2.2838 -1.2977
17698THY      O29747   0.609   1.437   2.588 -0.1719 -0.0268  0.2121
17698THY     HO29748   0.539   1.371   2.602  1.5938  0.6043 -1.6174
17698THY    CA129749   0.595   1.505   2.705  0.6657  0.1685  0.0016
17698THY    CA229750   0.660   1.627   2.720  0.0405  0.4056  0.7018
17698THY    CP129751   0.747   1.679   2.605  0.3353  0.2326  0.3328
17698THY    HP129752   0.752   1.605   2.524 -0.9343  1.0347 -0.6738
17698THY    CP229753   0.896   1.707   2.645  0.0801 -0.2418  0.2115
17698THY    HP229754   0.907   1.752   2.744  2.9445 -1.4071  2.4468
17698THY    HP329755   0.941   1.778   2.574 -0.2829 -1.0805 -0.3813
17698THY    HP429756   0.955   1.614   2.647 -1.5380 -1.0880 -0.8755
17698THY    CP329757   0.699   1.814   2.551 -0.0341 -0.4414  0.2847
17698THY    HP529758   0.713   1.877   2.639 -2.7294 -0.3781  0.8831
17698THY    HP629759   0.592   1.812   2.529  0.1064 -1.0890 -0.9917
17698THY    HP729760   0.767   1.845   2.471  1.5993  0.5881 -0.4712
17698THY    CA329761   0.637   1.698   2.839  0.1472 -0.3710  0.6823
17698THY    HA329762   0.676   1.799   2.852  4.7800 -1.6021 -0.6927
17698THY    CA429763   0.550   1.644   2.928 -0.3587  0.4111 -0.4003
17698THY    HA429764   0.541   1.707   3.017 -0.2812 -1.3082  2.1844
17698THY    CA529765   0.481   1.528   2.907  0.1976 -0.1600 -0.5114
17698THY    CM129766   0.383   1.470   3.003 -0.6865 -0.0517  0.2852
17698THY    HM129767   0.339   1.554   3.058 -1.4463  0.3529 -0.3562
17698THY    HM229768   0.418   1.396   3.075  1.4250 -1.7804 -0.5073
17698THY    HM329769   0.300   1.415   2.957 -1.4613  3.4307 -1.7643
17698THY    CA629770   0.508   1.452   2.797  0.5050 -0.0424 -0.1048
17698THY    HA629771   0.454   1.358   2.784 -3.0871 -0.7991  1.8835
17699THY      O29772   7.861   1.469   6.738 -0.9887 -0.0656 -0.1007
17699THY     HO29773   7.849   1.539   6.805  1.6188 -1.3333  1.7137
17699THY    CA129774   7.766   1.498   6.650 -0.2998  0.2897 -1.1058
17699THY    CA229775   7.729   1.410   6.543  0.4905 -0.7596  0.1805
17699THY    CP129776   7.783   1.262   6.524 -0.3005 -0.2215  0.5825
17699THY    HP129777   7.814   1.215   6.619  2.5503 -2.4276 -2.4594
17699THY    CP229778   7.904   1.272   6.428  0.6101  0.4136  0.4978
17699THY    HP229779   7.940   1.173   6.401  1.3595 -0.0900  0.8938
17699THY    HP329780   7.990   1.329   6.466  0.2981  0.5694  0.8777
17699THY    HP429781   7.878   1.319   6.332  2.8488 -0.7111 -0.4258
17699THY    CP329782   7.685   1.161   6.463 -0.0200 -0.3917 -0.1605
17699THY    HP529783   7.743   1.068   6.467  3.9335 -1.0314  2.0540
17699THY    HP629784   7.683   1.179   6.355  2.1676 -0.0735  2.6623
17699THY    HP729785   7.587   1.158   6.512  0.3676  0.8247  3.2391
17699THY    CA329786   7.632   1.455   6.452 -0.1978  0.4816  0.0345
17699THY    HA329787   7.595   1.400   6.366 -0.3972  0.3455  0.3824
17699THY    CA429788   7.582   1.589   6.464 -0.6901 -0.3603 -0.5067
17699THY    HA429789   7.514   1.635   6.393  0.4233 -1.3205 -0.3035
17699THY    CA529790   7.626   1.672   6.566 -0.6325  0.4944 -0.7990
17699THY    CM129791   7.571   1.806   6.587 -0.3727  0.3003  0.2822
17699THY    HM129792   7.462   1.811   6.585 -0.4224  1.6583  0.2895
17699THY    HM229793   7.600   1.872   6.504  0.8945  0.4721 -0.0281
17699THY    HM329794   7.592   1.854   6.684 -2.2005  0.9220 -0.0867
17699THY    CA629795   7.724   1.631   6.649 -0.6814  0.8262 -0.4978
17699THY    HA629796   7.758   1.713   6.712 -3.0457 -1.7506  2.7185
17700THY      O29797   0.242   4.904   3.406  0.4516  0.3204 -0.3066
17700THY     HO29798   0.241   4.847   3.327 -2.1553  0.8957 -1.2230
17700THY    CA129799   0.356   4.881   3.469 -0.3577 -0.0745 -0.0065
17700THY    CA229800   0.397   4.968   3.575 -0.4683  0.5504  0.9476
17700THY    CP129801   0.296   5.062   3.630 -0.1126 -1.0726 -0.4573
17700THY    HP129802   0.253   5.122   3.549 -1.4519  0.5029  0.8130
17700THY    CP229803   0.344   5.155   3.738 -0.7333 -0.3240 -0.6440
17700THY    HP229804   0.427   5.214   3.695  0.3450  0.5114 -1.5055
17700THY    HP329805   0.388   5.089   3.813  0.2802  0.5959  0.9957
17700THY    HP429806   0.268   5.228   3.769  0.1044  0.5148 -0.0935
17700THY    CP329807   0.180   4.979   3.711  0.0831 -0.1395  0.4256
17700THY    HP529808   0.116   4.929   3.638  0.0173 -1.7250  2.6864
17700THY    HP629809   0.113   5.056   3.750 -0.4141 -0.6172  0.2399
17700THY    HP729810   0.222   4.913   3.788 -1.2774  0.5348  0.3209
17700THY    CA329811   0.533   4.960   3.617  0.0379 -0.1960 -0.1878
17700THY    HA329812   0.566   5.032   3.691 -0.4596 -0.0097 -0.1476
17700THY    CA429813   0.621   4.858   3.574 -0.4228  0.6318  0.1352
17700THY    HA429814   0.723   4.870   3.608 -0.4479  0.7931 -0.1245
17700THY    CA529815   0.568   4.764   3.482 -0.6697  0.3841  0.0390
17700THY    CM129816   0.658   4.657   3.422 -0.0777  0.6957 -0.2237
17700THY    HM129817   0.744   4.647   3.489  1.0749 -0.6021  0.6589
17700THY    HM229818   0.704   4.683   3.326  1.3879  1.2146 -0.7916
17700THY    HM329819   0.594   4.573   3.394  0.5180  0.8614 -0.7431
17700THY    CA629820   0.438   4.775   3.437 -0.2647 -0.0661 -0.3683
17700THY    HA629821   0.400   4.691   3.379 -3.9229 -0.3860  1.3326
17701THY      O29822   6.706   0.368   4.201 -0.0769 -0.0277  0.3220
17701THY     HO29823   6.726   0.403   4.289 -3.0669  0.6681  0.5378
17701THY    CA129824   6.598   0.440   4.156  0.2198 -0.5021  1.0373
17701THY    CA229825   6.558   0.433   4.022  0.2136 -0.2296  0.7607
17701THY    CP129826   6.637   0.337   3.925  0.2531  0.1731 -0.1178
17701THY    HP129827   6.682   0.250   3.975  0.9389 -0.5725 -0.2133
17701THY    CP229828   6.757   0.413   3.864 -0.9595 -0.8413  0.0371
17701THY    HP229829   6.824   0.355   3.799  1.2620 -1.9782  3.5422
17701THY    HP329830   6.824   0.454   3.941  0.9625 -1.0470 -2.4078
17701THY    HP429831   6.719   0.488   3.794 -0.3441  0.8291  1.9854
17701THY    CP329832   6.545   0.278   3.810  0.5606 -0.5341 -0.2721
17701THY    HP529833   6.511   0.355   3.740  1.5815  1.2939  1.9783
17701THY    HP629834   6.453   0.238   3.855  1.0706  4.9433  3.5327
17701THY    HP729835   6.592   0.191   3.762  2.9655 -0.7320  1.0312
17701THY    CA329836   6.454   0.510   3.973  1.1165  0.0866 -0.1671
17701THY    HA329837   6.425   0.506   3.868  1.0404  0.1480 -2.5092
17701THY    CA429838   6.386   0.594   4.062  0.4770  0.8443  0.3319
17701THY    HA429839   6.301   0.644   4.016  1.1800 -3.1519 -1.7924
17701THY    CA529840   6.424   0.601   4.194 -0.0330  0.8883 -0.8344
17701THY    CM129841   6.356   0.689   4.292 -0.3886  0.0958  0.2240
17701THY    HM129842   6.399   0.790   4.295  1.1480  2.0060 -0.4133
17701THY    HM229843   6.384   0.644   4.388  2.9869 -0.7826  0.1977
17701THY    HM329844   6.247   0.703   4.289 -0.1678 -2.2243  2.2539
17701THY    CA629845   6.528   0.525   4.245  0.1829  1.1813  0.7045
17701THY    HA629846   6.544   0.522   4.353 -0.3727  1.2554 -0.3625
17702THY      O29847   5.530   0.349   5.323  0.3830 -0.0868 -0.1449
17702THY     HO29848   5.436   0.361   5.303 -0.5459  3.1727 -0.9979
17702THY    CA129849   5.531   0.369   5.456  0.0585  0.6027 -0.1080
17702THY    CA229850   5.638   0.318   5.537  0.1962  0.3916  0.1348
17702THY    CP129851   5.772   0.281   5.472 -0.0341 -1.0651 -0.0850
17702THY    HP129852   5.775   0.341   5.380 -3.0514 -0.7228  0.7792
17702THY    CP229853   5.775   0.127   5.444 -0.2089  0.8767 -0.8029
17702THY    HP229854   5.796   0.062   5.530  1.9210  0.4483 -0.7621
17702THY    HP329855   5.839   0.115   5.355 -1.7019 -0.7805  2.4527
17702THY    HP429856   5.679   0.111   5.395  0.4971 -0.8968  0.1230
17702THY    CP329857   5.888   0.318   5.566 -0.4268 -0.0559 -0.1089
17702THY    HP529858   5.985   0.293   5.521 -0.8682 -0.8602 -0.4312
17702THY    HP629859   5.882   0.275   5.666  3.3168  0.3724  0.0722
17702THY    HP729860   5.886   0.426   5.585  1.6615 -0.6311  0.0661
17702THY    CA329861   5.611   0.311   5.675  0.3232  0.0804 -0.1620
17702THY    HA329862   5.692   0.275   5.738  0.6473 -0.2067  0.0611
17702THY    CA429863   5.493   0.364   5.731 -0.1538 -0.6826  0.1156
17702THY    HA429864   5.478   0.358   5.838 -0.0851 -0.6218  0.9788
17702THY    CA529865   5.400   0.432   5.648  0.0860 -0.6347 -0.3690
17702THY    CM129866   5.269   0.489   5.710 -0.0869 -0.2960  0.5751
17702THY    HM129867   5.265   0.488   5.820 -0.9815 -0.1786  3.8260
17702THY    HM229868   5.185   0.421   5.691 -1.5532  2.9506  1.2728
17702THY    HM329869   5.247   0.589   5.670  1.8143  0.6032  1.4009
17702THY    CA629870   5.414   0.424   5.512 -0.9230  0.3334 -0.1697
17702THY    HA629871   5.332   0.464   5.452 -0.8493  0.3498  0.0063
17703THY      O29872   6.696   5.756   4.925  0.0439  0.6261 -0.2486
17703THY     HO29873   6.627   5.754   4.993 -1.4948 -0.7679  1.7011
17703THY    CA129874   6.761   5.874   4.946  0.3708 -0.1597  0.2190
17703THY    CA229875   6.877   5.900   4.874 -0.3372 -0.3431  0.2444
17703THY    CP129876   6.920   5.804   4.762  0.9709  0.2120 -0.0860
17703THY    HP129877   6.878   5.703   4.777 -1.1651  0.1983  0.7381
17703THY    CP229878   7.072   5.801   4.743  0.3087  0.3324 -0.2077
17703THY    HP229879   7.108   5.719   4.679 -2.2805 -1.1190 -0.3464
17703THY    HP329880   7.130   5.799   4.836 -0.2889  0.8005  1.9327
17703THY    HP429881   7.101   5.893   4.691 -3.7449 -1.2818  0.3688
17703THY    CP329882   6.850   5.859   4.629 -0.5335  0.4410 -0.6791
17703THY    HP529883   6.741   5.872   4.640 -0.8214 -2.6841  0.1414
17703THY    HP629884   6.860   5.791   4.544  0.6922  2.4436 -3.1656
17703THY    HP729885   6.902   5.949   4.596  1.4186 -3.2176 -2.9457
17703THY    CA329886   6.940   6.025   4.889  0.2272  0.1874  0.6915
17703THY    HA329887   7.038   6.038   4.844  0.5362  0.3390 -0.8836
17703THY    CA429888   6.892   6.119   4.978 -0.3917 -0.4466  0.7561
17703THY    HA429889   6.950   6.209   4.996  1.6392  1.0394 -0.7568
17703THY    CA529890   6.775   6.090   5.045 -0.4040 -0.6462 -0.2339
17703THY    CM129891   6.705   6.196   5.127 -0.3701  0.2163 -0.3431
17703THY    HM129892   6.692   6.163   5.231 -1.3882 -0.0619 -0.8604
17703THY    HM229893   6.604   6.222   5.092 -0.1500  0.1885  0.4944
17703THY    HM329894   6.758   6.292   5.131 -0.9502  0.4863 -0.0290
17703THY    CA629895   6.711   5.970   5.032 -0.6664  0.8812 -1.0895
17703THY    HA629896   6.625   5.950   5.096 -1.8109 -0.8134 -1.7967
17704THY      O29897   7.010   1.052   6.508  0.3982 -0.5607  0.8055
17704THY     HO29898   6.942   1.105   6.463 -1.2819 -0.5103 -1.1763
17704THY    CA129899   7.075   1.003   6.406 -0.0077  0.7131  0.6820
17704THY    CA229900   7.182   0.908   6.407  0.2523  0.8929  0.0656
17704THY    CP129901   7.229   0.861   6.541 -0.3191  1.0080  0.4360
17704THY    HP129902   7.138   0.877   6.600 -1.8264 -0.5530 -1.8518
17704THY    CP229903   7.338   0.940   6.605  0.0567 -0.1486  0.4657
17704THY    HP229904   7.320   1.046   6.588  0.5586 -1.3023  0.3721
17704THY    HP329905   7.432   0.916   6.555  0.3525 -0.4881  2.2183
17704THY    HP429906   7.353   0.925   6.713  1.1398  0.0746  2.8184
17704THY    CP329907   7.258   0.710   6.539  0.3621 -0.2907 -0.9203
17704THY    HP529908   7.346   0.710   6.473 -0.4748 -1.4964  1.2602
17704THY    HP629909   7.178   0.648   6.498 -0.3092  2.1761 -1.7835
17704THY    HP729910   7.284   0.675   6.640  1.0073 -0.3460 -0.6267
17704THY    CA329911   7.238   0.868   6.283  0.6444  0.1298 -0.0800
17704THY    HA329912   7.320   0.798   6.281  1.9384  0.9554  1.3295
17704THY    CA429913   7.203   0.928   6.161  0.2319  0.3881  0.2849
17704THY    HA429914   7.248   0.901   6.066  0.5875  0.7740 -0.5053
17704THY    CA529915   7.105   1.029   6.163  0.0663  0.0398  0.6526
17704THY    CM129916   7.067   1.114   6.045  0.4567  0.7433 -0.0959
17704THY    HM129917   7.071   1.218   6.079 -0.3566 -2.3195  1.0537
17704THY    HM229918   6.969   1.075   6.016  1.7190 -3.4362 -0.7293
17704THY    HM329919   7.138   1.108   5.962 -0.3802  0.0037 -0.0387
17704THY    CA629920   7.042   1.063   6.283  0.3579 -0.0520  0.1903
17704THY    HA629921   6.968   1.142   6.290  1.3896  0.6771  1.1227
17705THY      O29922   9.006   3.986   2.368 -0.3157  0.3652 -0.5070
17705THY     HO29923   9.048   4.039   2.297 -1.3406  1.0469  1.3055
17705THY    CA129924   9.082   4.008   2.471  0.6235  1.0684  0.0807
17705THY    CA229925   9.031   4.069   2.589  0.2416 -0.0569  0.0810
17705THY    CP129926   8.883   4.102   2.613 -0.0926  0.2344  0.4268
17705THY    HP129927   8.823   4.071   2.528 -3.4100  1.7592  2.1892
17705THY    CP229928   8.876   4.256   2.636 -0.0620  0.3709  0.0840
17705THY    HP229929   8.897   4.319   2.548  0.0005  0.9307  0.8505
17705THY    HP329930   8.944   4.282   2.717 -1.2645  2.0419 -1.7633
17705THY    HP429931   8.773   4.278   2.666  0.3263  1.0353  1.0552
17705THY    CP329932   8.819   4.018   2.725  0.2236 -0.7273 -0.8597
17705THY    HP529933   8.844   4.052   2.826 -2.1340 -0.3923  0.0219
17705THY    HP629934   8.828   3.909   2.720 -0.3150  1.8521 -1.0938
17705THY    HP729935   8.713   4.042   2.724  0.1391  2.3265 -0.7791
17705THY    CA329936   9.122   4.071   2.697 -0.3985 -0.6540  0.2002
17705THY    HA329937   9.094   4.100   2.798 -0.6220 -0.6563 -0.0046
17705THY    CA429938   9.256   4.032   2.683  1.0249  0.0486 -0.5766
17705THY    HA429939   9.322   4.053   2.767 -0.6592  0.9521  1.5033
17705THY    CA529940   9.303   3.987   2.562  0.3057  0.4011  0.5130
17705THY    CM129941   9.452   3.962   2.549  0.1386  0.0197  0.1138
17705THY    HM129942   9.498   4.057   2.520 -1.8234 -0.2129  1.0523
17705THY    HM229943   9.478   3.888   2.473  0.3083  1.1103 -0.9694
17705THY    HM329944   9.496   3.942   2.647 -0.4363  0.2344 -0.1200
17705THY    CA629945   9.213   3.964   2.463 -0.3581  0.7902  0.1484
17705THY    HA629946   9.255   3.925   2.371 -0.0705  0.9494  0.0796
17706THY      O29947   2.775   8.522   3.867 -0.0899  0.1917 -0.0831
17706THY     HO29948   2.812   8.612   3.859  2.1533 -1.0942 -1.0309
17706THY    CA129949   2.651   8.539   3.822 -0.4771 -0.0886  0.1627
17706THY    CA229950   2.583   8.431   3.764  0.2052  0.2589 -0.3806
17706THY    CP129951   2.649   8.297   3.762 -0.3501  0.8322  0.3584
17706THY    HP129952   2.714   8.290   3.850 -0.6184  1.0244  0.2653
17706THY    CP229953   2.732   8.283   3.634  0.1405 -0.3011  0.5513
17706THY    HP229954   2.688   8.338   3.550 -1.8622  0.9715  1.0111
17706THY    HP329955   2.742   8.180   3.599 -0.2790 -0.4155  0.5491
17706THY    HP429956   2.837   8.315   3.643  1.0053  0.5226 -2.2341
17706THY    CP329957   2.554   8.179   3.766 -0.5168 -0.5924 -0.9440
17706THY    HP529958   2.493   8.169   3.675 -1.5953 -0.1105  0.7634
17706THY    HP629959   2.483   8.196   3.848 -1.8766 -2.1681  1.7946
17706THY    HP729960   2.614   8.088   3.775 -0.1861 -1.5307 -0.8370
17706THY    CA329961   2.449   8.456   3.718 -0.5195 -0.1393 -0.6672
17706THY    HA329962   2.399   8.374   3.668  1.5089  0.0323 -2.0773
17706THY    CA429963   2.397   8.583   3.713 -0.1331 -0.6474 -0.0105
17706THY    HA429964   2.300   8.599   3.667 -1.0242  1.5857  1.5212
17706THY    CA529965   2.469   8.694   3.771  0.4132  0.2247 -0.4962
17706THY    CM129966   2.407   8.839   3.764 -0.1528 -0.0034  0.0836
17706THY    HM129967   2.371   8.862   3.865 -1.9006 -0.8752  1.4072
17706THY    HM229968   2.333   8.847   3.683 -1.5217  1.1207 -0.6392
17706THY    HM329969   2.483   8.907   3.726 -2.1940 -2.2365  1.2694
17706THY    CA629970   2.597   8.670   3.825 -0.0325  0.4328  0.6754
17706THY    HA629971   2.650   8.753   3.871 -0.9167  1.3611  0.7431
17707THY      O29972   2.420   7.326   4.375 -0.0776 -0.2566  0.3245
17707THY     HO29973   2.497   7.345   4.430 -0.8134  1.0870 -0.3908
17707THY    CA129974   2.335   7.436   4.393 -0.3516  0.0327 -0.1616
17707THY    CA229975   2.241   7.476   4.296  0.4079 -0.5241 -0.0270
17707THY    CP129976   2.238   7.408   4.162 -0.8762 -0.2525 -0.2729
17707THY    HP129977   2.336   7.358   4.150  0.8052  2.5018  2.0544
17707THY    CP229978   2.256   7.519   4.050 -0.4362  0.1414  0.1029
17707THY    HP229979   2.284   7.466   3.958 -0.5049  0.1427  0.0641
17707THY    HP329980   2.338   7.589   4.070 -0.8538 -0.3394  0.7374
17707THY    HP429981   2.170   7.580   4.023 -0.2600 -0.3315  0.1478
17707THY    CP329982   2.117   7.312   4.135 -0.0182 -0.5610 -0.2647
17707THY    HP529983   2.024   7.369   4.144  0.7768  0.3051  0.9307
17707THY    HP629984   2.104   7.230   4.207  0.3538  0.5392  0.6194
17707THY    HP729985   2.143   7.276   4.035  0.5136 -0.2960 -0.6323
17707THY    CA329986   2.155   7.578   4.321 -0.4665 -0.1234 -0.0884
17707THY    HA329987   2.077   7.602   4.250 -1.3211  1.1161  0.9350
17707THY    CA429988   2.146   7.630   4.452 -0.2019  0.7243 -0.2888
17707THY    HA429989   2.064   7.690   4.490  0.2679  3.4081 -1.2129
17707THY    CA529990   2.235   7.587   4.551 -0.9379  0.4699 -0.1470
17707THY    CM129991   2.224   7.629   4.698  0.3514 -0.1951 -0.0870
17707THY    HM129992   2.122   7.663   4.720 -0.4994 -3.5248 -0.2096
17707THY    HM229993   2.292   7.710   4.728  0.3500 -0.9941  0.2153
17707THY    HM329994   2.253   7.543   4.761 -0.2433 -1.4391 -1.2363
17707THY    CA629995   2.334   7.486   4.526  0.4111  0.4168 -0.0535
17707THY    HA629996   2.399   7.454   4.607  0.7788  0.1328 -0.0330
17708THY      O29997   1.270   7.259   3.582  0.1021 -0.4657  0.1380
17708THY     HO29998   1.304   7.242   3.492 -2.0392 -1.2797 -0.1569
17708THY    CA129999   1.140   7.218   3.589 -0.0653 -0.2233  0.2297
17708THY    CA230000   1.036   7.300   3.648  0.4277 -0.4987 -0.2412
17708THY    CP130001   1.070   7.436   3.710 -0.1094  0.2976 -0.0261
17708THY    HP130002   1.178   7.434   3.729 -0.0760  0.3710 -3.5560
17708THY    CP230003   1.001   7.473   3.838 -0.0533  0.3366 -0.4095
17708THY    HP230004   0.892   7.463   3.825  0.4788 -5.0965 -2.9012
17708THY    HP330005   1.028   7.576   3.859  0.9495 -3.3235  0.2104
17708THY    HP430006   1.035   7.405   3.917 -0.6462 -1.1668 -2.5767
17708THY    CP330007   1.044   7.538   3.601  0.1821 -0.5409 -0.0809
17708THY    HP530008   0.944   7.534   3.557  1.0821 -3.2744  2.7262
17708THY    HP630009   1.122   7.521   3.525  2.6133  1.8472 -0.3816
17708THY    HP730010   1.060   7.640   3.639  0.3405 -0.3333 -0.1833
17708THY    CA330011   0.899   7.260   3.638  0.1894  0.9636 -0.1282
17708THY    HA330012   0.822   7.327   3.674 -0.9994 -0.3455 -0.7422
17708THY    CA430013   0.866   7.133   3.584  0.6037  0.8488 -0.2792
17708THY    HA430014   0.765   7.099   3.560 -0.5420  0.0767  3.2757
17708THY    CA530015   0.967   7.049   3.536 -0.6186  0.2424 -0.6797
17708THY    CM130016   0.934   6.930   3.460  0.4483  0.5754 -0.3166
17708THY    HM130017   0.978   6.935   3.360  1.2527  0.9193 -0.4745
17708THY    HM230018   0.828   6.900   3.463 -0.6759 -0.6962  3.0398
17708THY    HM330019   0.981   6.848   3.516  1.0366 -0.4579 -0.6984
17708THY    CA630020   1.104   7.096   3.529 -0.0959 -0.1532 -0.2989
17708THY    HA630021   1.184   7.041   3.480  1.5305  0.2481  1.6319
17709THY      O30022   1.410   0.649   2.729 -0.4983  0.1535 -0.2408
17709THY     HO30023   1.464   0.611   2.657  2.1741  0.2497  2.9276
17709THY    CA130024   1.492   0.727   2.800 -0.3033  0.2334  0.4963
17709THY    CA230025   1.442   0.809   2.903  0.8962 -0.5214 -0.9747
17709THY    CP130026   1.295   0.787   2.966 -0.5316  0.3108  0.0871
17709THY    HP130027   1.241   0.719   2.899 -1.2061  1.2850 -0.3540
17709THY    CP230028   1.214   0.914   2.975 -0.4846  0.0214  0.1275
17709THY    HP230029   1.233   0.975   2.887  1.2485  1.5743  1.9863
17709THY    HP330030   1.227   0.986   3.057  0.3082 -0.5056  0.6022
17709THY    HP430031   1.110   0.881   2.967 -0.8778 -0.2409  1.4157
17709THY    CP330032   1.308   0.726   3.105 -0.5351 -0.4438 -0.1949
17709THY    HP530033   1.350   0.627   3.087  1.2863  1.0551  0.2375
17709THY    HP630034   1.214   0.722   3.161  1.0885  2.6416  0.6449
17709THY    HP730035   1.376   0.787   3.166 -1.0135 -0.0789 -0.0154
17709THY    CA330036   1.523   0.910   2.954 -0.1284  0.0011 -0.1451
17709THY    HA330037   1.485   0.986   3.022 -0.6410 -1.1243  0.6161
17709THY    CA430038   1.658   0.911   2.916 -0.0871  0.4074  0.2590
17709THY    HA430039   1.727   0.986   2.956  1.3864  1.1863 -1.4467
17709THY    CA530040   1.710   0.831   2.817  0.0645  0.3984  0.0614
17709THY    CM130041   1.856   0.835   2.776 -0.4964 -0.2736  0.3185
17709THY    HM130042   1.907   0.932   2.777  0.2935  2.8688 -0.0258
17709THY    HM230043   1.864   0.797   2.674 -1.7796 -0.6219  0.9304
17709THY    HM330044   1.918   0.761   2.828  0.1095 -1.1032  0.2277
17709THY    CA630045   1.626   0.744   2.752  0.5063 -0.2526 -0.4371
17709THY    HA630046   1.666   0.696   2.663 -1.3529 -1.6413  0.4120
17710THY      O30047   4.677   8.387   7.517  0.3436  0.3061 -0.2383
17710THY     HO30048   4.748   8.433   7.564  1.4707 -2.0742  0.6458
17710THY    CA130049   4.690   8.448   7.389 -0.4690 -0.4319 -0.0030
17710THY    CA230050   4.576   8.472   7.311  0.1426 -0.9759 -0.0335
17710THY    CP130051   4.438   8.445   7.363 -0.1373  0.2305 -0.0737
17710THY    HP130052   4.426   8.360   7.431 -0.9219 -0.6975 -0.7276
17710THY    CP230053   4.325   8.429   7.259  0.3267 -0.5873  0.3308
17710THY    HP230054   4.234   8.432   7.320  0.5216 -0.3268  2.3972
17710THY    HP330055   4.335   8.338   7.198  0.7139 -1.3923  0.9072
17710THY    HP430056   4.318   8.520   7.199 -1.9711  2.0089  2.0382
17710THY    CP330057   4.407   8.559   7.458 -0.2819  0.1472  0.2451
17710THY    HP530058   4.485   8.565   7.535 -0.5403  0.5088 -0.7628
17710THY    HP630059   4.314   8.522   7.503 -0.2932  0.8206  1.0799
17710THY    HP730060   4.388   8.655   7.409  0.5555  0.3803  0.5398
17710THY    CA330061   4.592   8.519   7.178  0.5581  0.2215 -0.2252
17710THY    HA330062   4.512   8.532   7.106  0.3565  0.2034 -1.4611
17710THY    CA430063   4.725   8.560   7.134 -0.1123  1.0292  0.1397
17710THY    HA430064   4.728   8.613   7.039 -0.4318  1.9038  1.7835
17710THY    CA530065   4.838   8.537   7.211 -0.5294  0.0274 -0.1506
17710THY    CM130066   4.976   8.567   7.153  0.2418  0.2897 -0.5411
17710THY    HM130067   4.975   8.664   7.102  4.0616 -0.9433 -0.9579
17710THY    HM230068   5.001   8.501   7.069  2.0141 -0.0199  0.4620
17710THY    HM330069   5.055   8.566   7.229  1.1279 -0.6032 -0.2052
17710THY    CA630070   4.820   8.489   7.347 -0.0742  0.1852  0.9191
17710THY    HA630071   4.908   8.489   7.410  0.1892 -0.1783  1.4457
17711THY      O30072   7.984   0.674   6.017 -0.5609  0.5005  0.5253
17711THY     HO30073   8.030   0.742   6.070  0.5949 -0.5819  0.6137
17711THY    CA130074   7.852   0.676   6.029 -0.2458 -0.3055  0.1962
17711THY    CA230075   7.782   0.555   6.002 -0.4264  0.1050  0.0822
17711THY    CP130076   7.848   0.427   5.973 -0.6361 -0.1852 -0.6978
17711THY    HP130077   7.955   0.437   5.993 -0.6611 -0.4736  0.1800
17711THY    CP230078   7.816   0.385   5.826 -0.4756 -0.4441  0.2195
17711THY    HP230079   7.713   0.353   5.808 -0.5895  1.1713 -0.4661
17711THY    HP330080   7.873   0.294   5.803 -0.4728 -0.9385  0.3471
17711THY    HP430081   7.847   0.462   5.755 -0.6646 -1.6047 -0.7376
17711THY    CP330082   7.816   0.323   6.086  0.1655 -0.0299 -0.3576
17711THY    HP530083   7.900   0.256   6.107 -0.5959  2.4795 -0.6453
17711THY    HP630084   7.725   0.272   6.053 -0.1725 -0.8154  0.6974
17711THY    HP730085   7.795   0.355   6.189 -1.3777 -0.3693 -0.2229
17711THY    CA330086   7.641   0.567   5.995  0.6610 -0.4243 -0.1854
17711THY    HA330087   7.581   0.485   5.956  0.6301  0.8620 -0.7964
17711THY    CA430088   7.579   0.686   6.036 -0.2794  0.0991  0.3616
17711THY    HA430089   7.471   0.686   6.023 -0.1840 -0.7673 -0.4933
17711THY    CA530090   7.651   0.799   6.073 -0.2587  0.3507 -0.1732
17711THY    CM130091   7.585   0.935   6.097 -0.4949 -0.3032  0.4032
17711THY    HM130092   7.599   0.976   6.198  2.7466 -0.3229 -0.4167
17711THY    HM230093   7.479   0.926   6.071 -0.1408 -2.3650  1.6022
17711THY    HM330094   7.642   1.006   6.036  0.9731  0.1933 -0.3340
17711THY    CA630095   7.789   0.791   6.074 -0.3210  0.3431 -0.1787
17711THY    HA630096   7.842   0.880   6.104 -2.0457  2.0723  0.3412
17712THY      O30097   5.492   5.812   6.857 -0.0258  0.2300 -0.1090
17712THY     HO30098   5.419   5.858   6.811  0.2717  0.5399  0.6967
17712THY    CA130099   5.443   5.697   6.901 -0.0285  0.2363 -0.0318
17712THY    CA230100   5.494   5.628   7.011  0.8967  0.1479  0.5223
17712THY    CP130101   5.614   5.684   7.088  0.1149  0.3542  0.2730
17712THY    HP130102   5.685   5.730   7.018  1.4296  1.3835 -0.1352
17712THY    CP230103   5.694   5.583   7.171  0.5741 -0.0909 -0.9777
17712THY    HP230104   5.780   5.633   7.218 -0.3537  0.0544  0.5421
17712THY    HP330105   5.745   5.515   7.102 -0.7334  0.0323 -2.1161
17712THY    HP430106   5.635   5.523   7.241 -0.3489 -1.6367 -1.9271
17712THY    CP330107   5.553   5.786   7.193 -0.4361  0.1529  0.5556
17712THY    HP530108   5.490   5.862   7.145 -1.1537  1.5439  0.8764
17712THY    HP630109   5.632   5.839   7.247 -1.0594  3.1532 -1.3402
17712THY    HP730110   5.491   5.727   7.261  1.3826  1.7524  0.3899
17712THY    CA330111   5.413   5.512   7.056  0.2184 -0.1949 -0.7634
17712THY    HA330112   5.447   5.449   7.138 -0.0402 -1.0579 -2.0776
17712THY    CA430113   5.302   5.473   6.985 -0.1045  0.2259 -0.5980
17712THY    HA430114   5.251   5.383   7.018  1.9001  0.5207 -1.6839
17712THY    CA530115   5.259   5.545   6.865  0.3907 -0.3925 -0.3410
17712THY    CM130116   5.146   5.499   6.780 -0.2272 -0.2859 -0.2927
17712THY    HM130117   5.180   5.413   6.721  2.3803 -1.1972  1.2074
17712THY    HM230118   5.116   5.581   6.713 -2.2691 -2.0333 -2.3313
17712THY    HM330119   5.059   5.473   6.841  1.2897  0.3251 -4.6450
17712THY    CA630120   5.330   5.658   6.824  0.4710  0.0777  0.6155
17712THY    HA630121   5.295   5.701   6.731  1.4488  0.3103  1.9539
17713THY      O30122   3.293   2.874   3.097  0.8778 -0.3703 -0.1435
17713THY     HO30123   3.218   2.904   3.152 -2.5116 -3.6775 -1.6773
17713THY    CA130124   3.270   2.933   2.981 -0.3406  0.7215  0.7051
17713THY    CA230125   3.329   2.889   2.862 -0.3826 -0.4246 -0.0355
17713THY    CP130126   3.398   2.764   2.854 -0.8362 -0.1369 -0.4839
17713THY    HP130127   3.440   2.733   2.950  1.5185 -0.4159  1.5670
17713THY    CP230128   3.511   2.753   2.751  0.1663 -0.0504  0.6588
17713THY    HP230129   3.472   2.742   2.649 -0.5182  0.2971 -0.2280
17713THY    HP330130   3.550   2.651   2.754 -0.9373 -1.0935  0.1717
17713THY    HP430131   3.595   2.822   2.764 -0.2271  2.4081  0.7870
17713THY    CP330132   3.292   2.661   2.829  0.0992 -0.3956  0.2284
17713THY    HP530133   3.248   2.662   2.729  0.5240 -0.5803  0.6360
17713THY    HP630134   3.206   2.679   2.895  0.3783  0.0176  0.0784
17713THY    HP730135   3.324   2.558   2.850  0.5090  0.0381  0.4407
17713THY    CA330136   3.329   2.977   2.748  0.0252  0.2773 -0.3325
17713THY    HA330137   3.358   2.943   2.649 -2.0453  0.3145 -2.4848
17713THY    CA430138   3.265   3.102   2.764  1.0183  0.6524 -0.0813
17713THY    HA430139   3.267   3.162   2.674 -2.9285  0.5078  0.0511
17713THY    CA530140   3.202   3.146   2.879  0.6235 -0.6430 -0.0654
17713THY    CM130141   3.148   3.290   2.886  0.4890  0.0094  0.5087
17713THY    HM130142   3.096   3.318   2.795 -2.4764  1.4566  0.0560
17713THY    HM230143   3.233   3.358   2.900  0.9281 -0.3631  0.0443
17713THY    HM330144   3.075   3.291   2.968 -0.1951 -0.5117 -1.4081
17713THY    CA630145   3.203   3.055   2.986  0.8364 -0.5920  0.5519
17713THY    HA630146   3.140   3.082   3.071  1.4025  0.0326 -0.0456
17714THY      O30147   2.267   7.413   3.435  0.0907  0.0445 -0.3110
17714THY     HO30148   2.317   7.420   3.352 -0.1070  0.0500  2.6961
17714THY    CA130149   2.187   7.308   3.429  0.2955 -0.6249  0.6550
17714THY    CA230150   2.067   7.296   3.494 -0.5736  0.1732 -0.7107
17714THY    CP130151   2.010   7.413   3.582  0.1757 -0.1134  0.7099
17714THY    HP130152   2.085   7.490   3.563  1.6605  0.2223 -0.6068
17714THY    CP230153   1.997   7.396   3.732 -0.1022  0.8245 -0.0734
17714THY    HP230154   1.956   7.295   3.743  0.3581 -0.0963 -0.3706
17714THY    HP330155   1.932   7.469   3.781 -0.4804 -0.1770  0.2785
17714THY    HP430156   2.096   7.402   3.779  0.5538 -0.4844 -0.3187
17714THY    CP330157   1.878   7.465   3.532 -0.1822  0.2205 -0.4894
17714THY    HP530158   1.893   7.494   3.428 -0.6336  0.2140 -0.2676
17714THY    HP630159   1.835   7.549   3.589  2.5083 -1.6357  2.3833
17714THY    HP730160   1.808   7.381   3.532 -1.9874  1.6646  0.9213
17714THY    CA330161   1.991   7.176   3.474  0.4220 -0.4988 -0.3018
17714THY    HA330162   1.896   7.161   3.524  1.3705  1.0687 -1.3674
17714THY    CA430163   2.035   7.067   3.390  0.1987  0.4124  0.2218
17714THY    HA430164   1.970   6.982   3.373  1.2295  0.7177 -0.6523
17714THY    CA530165   2.160   7.082   3.333  0.5332  0.5204 -0.3974
17714THY    CM130166   2.235   6.976   3.262 -0.2993  0.5704 -0.4014
17714THY    HM130167   2.160   6.899   3.240 -2.2909 -2.9769  2.2159
17714THY    HM230168   2.323   6.943   3.318  0.5980 -0.4734  0.1216
17714THY    HM330169   2.262   7.008   3.160  0.7239  1.2914  1.1895
17714THY    CA630170   2.230   7.198   3.351  0.2997  0.1061  0.2966
17714THY    HA630171   2.326   7.213   3.301  0.0853 -0.6678 -0.8072
17715THY      O30172   2.519   2.803   4.329  0.5675 -0.5795 -0.0227
17715THY     HO30173   2.460   2.872   4.365 -1.0827 -2.3796 -0.4041
17715THY    CA130174   2.506   2.820   4.195 -0.0134 -0.0608 -0.0175
17715THY    CA230175   2.565   2.737   4.099  0.1313  0.1339 -0.6688
17715THY    CP130176   2.661   2.625   4.142  0.4434 -0.4394  0.0536
17715THY    HP130177   2.667   2.630   4.251  2.4767 -0.4855 -0.7880
17715THY    CP230178   2.813   2.655   4.097  0.4364  0.2188  0.1795
17715THY    HP230179   2.873   2.571   4.136  0.7147  0.0050  0.2765
17715THY    HP330180   2.857   2.747   4.137  2.3923  0.1983 -0.6867
17715THY    HP430181   2.824   2.661   3.989 -0.6332  0.0539 -0.5335
17715THY    CP330182   2.623   2.486   4.097  0.3261  0.5135  0.3054
17715THY    HP530183   2.648   2.471   3.991 -3.2191 -0.2557 -1.4495
17715THY    HP630184   2.514   2.480   4.105  0.3873  1.1159 -0.0797
17715THY    HP730185   2.668   2.409   4.160  2.9181 -1.0000  0.4593
17715THY    CA330186   2.543   2.759   3.963 -0.1800 -0.2530  0.0707
17715THY    HA330187   2.581   2.693   3.886  2.3053 -0.9591  2.1839
17715THY    CA430188   2.458   2.869   3.931  0.1279  0.4867  0.3322
17715THY    HA430189   2.437   2.880   3.824 -0.9486  0.7014  0.5011
17715THY    CA530190   2.408   2.959   4.023 -0.0924  0.1124  0.7423
17715THY    CM130191   2.325   3.082   3.988  0.2176  0.8503  0.0557
17715THY    HM130192   2.360   3.127   3.895  0.9951  1.5719  0.9876
17715THY    HM230193   2.319   3.161   4.064  1.7930 -0.7794  1.8370
17715THY    HM330194   2.220   3.056   3.969  0.1126 -1.8707  1.9689
17715THY    CA630195   2.428   2.930   4.155  0.3016 -0.4069 -0.4764
17715THY    HA630196   2.379   2.988   4.232 -2.1142 -2.9593  1.1450
17716THY      O30197   1.439   0.770   7.831  0.2825 -0.2598 -0.0665
17716THY     HO30198   1.407   0.813   7.750  1.5440 -0.3753  0.7021
17716THY    CA130199   1.390   0.643   7.821  0.2470  0.4172  0.0017
17716THY    CA230200   1.452   0.538   7.884 -0.7502  0.6496  0.3700
17716THY    CP130201   1.597   0.560   7.955 -0.0612 -0.2362  0.1213
17716THY    HP130202   1.652   0.645   7.913  2.0898  2.1127 -0.0205
17716THY    CP230203   1.692   0.441   7.922 -0.0574  0.1167  0.4671
17716THY    HP230204   1.798   0.462   7.937  0.2155 -1.2500  0.2002
17716THY    HP330205   1.688   0.408   7.817  2.4161  1.0382 -3.5088
17716THY    HP430206   1.664   0.344   7.965  0.1923 -0.0383  0.3252
17716THY    CP330207   1.582   0.594   8.103  0.2087 -0.1193 -0.6799
17716THY    HP530208   1.535   0.512   8.158  0.9977  1.0745 -0.3603
17716THY    HP630209   1.516   0.682   8.108  1.4252  1.2437  0.2099
17716THY    HP730210   1.682   0.617   8.141  0.2881 -0.3212 -0.6879
17716THY    CA330211   1.399   0.403   7.870  0.2214  0.6406 -0.3430
17716THY    HA330212   1.454   0.319   7.910  0.5832  3.4269  1.0895
17716THY    CA430213   1.278   0.384   7.794  0.2882  0.0640  0.7379
17716THY    HA430214   1.240   0.285   7.769  1.0029 -0.4236  0.5800
17716THY    CA530215   1.224   0.502   7.732  0.1139  0.3860  0.4525
17716THY    CM130216   1.113   0.493   7.639 -0.7057 -0.1452  0.0010
17716THY    HM130217   1.034   0.559   7.675 -0.4704  1.3968 -0.5167
17716THY    HM230218   1.065   0.395   7.634 -0.4819  2.8389 -0.3582
17716THY    HM330219   1.149   0.519   7.539  1.8929  0.2425 -1.6813
17716THY    CA630220   1.282   0.626   7.743  0.4492 -0.1407  0.3415
17716THY    HA630221   1.232   0.711   7.697  0.6513  0.2333  0.6659
17717THY      O30222   4.931   2.495   3.637  0.2403  0.9987  0.3786
17717THY     HO30223   5.005   2.497   3.701 -0.6909  2.0782  1.8752
17717THY    CA130224   4.980   2.543   3.525  0.1338  0.5421  0.3308
17717THY    CA230225   4.902   2.551   3.409 -0.1566 -0.0919 -0.1242
17717THY    CP130226   4.746   2.529   3.414  0.3145 -0.2907 -0.2547
17717THY    HP130227   4.723   2.521   3.521  2.4449  0.3335  1.1474
17717THY    CP230228   4.694   2.402   3.356 -0.1219 -0.3083  0.4271
17717THY    HP230229   4.760   2.318   3.384 -0.9299  3.1676  0.8103
17717THY    HP330230   4.690   2.407   3.246 -3.3968 -0.3141 -0.3065
17717THY    HP430231   4.597   2.373   3.397  1.1687  2.2307 -0.6459
17717THY    CP330232   4.663   2.652   3.365  0.5011 -0.2494  0.1390
17717THY    HP530233   4.613   2.620   3.273  1.5844 -0.9944  0.5222
17717THY    HP630234   4.719   2.744   3.344  1.5756  0.5130 -0.3291
17717THY    HP730235   4.583   2.675   3.436  0.8797 -0.1180  1.1044
17717THY    CA330236   4.963   2.605   3.292 -0.8706  0.4181  0.2868
17717THY    HA330237   4.901   2.638   3.209 -0.5340 -0.3146 -0.8443
17717THY    CA430238   5.101   2.634   3.289 -0.3963  0.0225  0.1574
17717THY    HA430239   5.149   2.687   3.207  1.0378  1.6959  1.6019
17717THY    CA530240   5.178   2.620   3.411 -0.4281 -0.0520  0.5221
17717THY    CM130241   5.326   2.644   3.415  0.1061 -0.4713 -0.1029
17717THY    HM130242   5.341   2.714   3.498 -2.0260 -0.4949  0.4514
17717THY    HM230243   5.345   2.692   3.318 -0.5535  0.3225  1.8410
17717THY    HM330244   5.381   2.549   3.420 -0.8005  0.3605 -0.6094
17717THY    CA630245   5.117   2.569   3.524  0.1001 -0.4499  0.3798
17717THY    HA630246   5.176   2.554   3.613  1.3307 -1.3494 -0.2594
17718THY      O30247   3.736   5.995   3.547 -0.0071  0.2006 -0.2669
17718THY     HO30248   3.730   6.005   3.450  1.1725  0.0640 -0.7514
17718THY    CA130249   3.619   5.931   3.576  0.1035 -0.3423 -0.3418
17718THY    CA230250   3.595   5.880   3.709 -0.1105  0.2019 -0.5159
17718THY    CP130251   3.696   5.895   3.821  0.2401 -0.2267 -0.6429
17718THY    HP130252   3.730   5.999   3.811 -3.9831 -1.3847  0.8613
17718THY    CP230253   3.819   5.803   3.797 -0.8346 -0.1952  0.2480
17718THY    HP230254   3.778   5.704   3.774 -0.8226 -1.1278  0.4470
17718THY    HP330255   3.874   5.784   3.890 -1.6216  0.2419  0.1112
17718THY    HP430256   3.889   5.835   3.718 -0.3640 -0.0813 -0.4486
17718THY    CP330257   3.640   5.881   3.964  0.2831 -0.6461 -0.0317
17718THY    HP530258   3.645   5.777   3.997 -0.4265  1.0540  0.4431
17718THY    HP630259   3.534   5.906   3.969  0.6776  2.6270  1.4454
17718THY    HP730260   3.684   5.945   4.042 -1.3381  0.3686 -0.1133
17718THY    CA330261   3.475   5.808   3.724  0.1420 -0.2272 -0.4817
17718THY    HA330262   3.463   5.762   3.822  1.6576  0.1990 -0.0246
17718THY    CA430263   3.381   5.790   3.617 -0.4289  0.0189 -0.3942
17718THY    HA430264   3.290   5.736   3.642 -0.3932 -0.2447 -0.5768
17718THY    CA530265   3.404   5.851   3.491  0.4264  0.2475  0.7681
17718THY    CM130266   3.314   5.833   3.374  0.7115  0.5897 -0.9404
17718THY    HM130267   3.224   5.893   3.389 -0.6760 -1.0690 -2.4798
17718THY    HM230268   3.290   5.726   3.360  3.6675  0.9272 -1.7348
17718THY    HM330269   3.359   5.873   3.282 -3.6775  0.2289  4.2606
17718THY    CA630270   3.523   5.931   3.482 -0.1815 -0.2647 -0.7002
17718THY    HA630271   3.542   5.979   3.386  1.8350  0.8734  0.9226
17719THY      O30272   4.656   5.936   1.770 -0.0926 -0.0004  0.2323
17719THY     HO30273   4.607   6.017   1.745 -0.9187 -0.4872 -0.4014
17719THY    CA130274   4.787   5.975   1.764  0.3159  0.4746 -0.0333
17719THY    CA230275   4.891   5.901   1.820 -0.7924 -0.1974  0.4139
17719THY    CP130276   4.862   5.766   1.886  0.8978 -0.2402  0.4059
17719THY    HP130277   4.756   5.745   1.900  0.6950 -1.6670  0.4021
17719THY    CP230278   4.935   5.744   2.023 -0.0972 -0.2389 -0.1920
17719THY    HP230279   5.041   5.740   1.995  0.0129 -0.2086  1.7451
17719THY    HP330280   4.891   5.656   2.071  0.4354  0.5953 -0.0124
17719THY    HP430281   4.924   5.836   2.082  1.1488 -1.6599  0.9351
17719THY    CP330282   4.894   5.648   1.790 -0.5615  0.6450 -0.1607
17719THY    HP530283   4.841   5.655   1.694  0.3519 -0.3236 -4.2648
17719THY    HP630284   4.880   5.558   1.851 -1.3400  0.0492 -0.4511
17719THY    HP730285   4.998   5.674   1.767 -1.3529 -0.3278  2.4817
17719THY    CA330286   5.022   5.953   1.809  1.1918  0.3005 -0.1385
17719THY    HA330287   5.101   5.899   1.862  0.6025 -0.1343 -1.4796
17719THY    CA430288   5.046   6.069   1.743 -0.6929  0.3513 -0.1278
17719THY    HA430289   5.148   6.103   1.724 -0.8729  0.1560  0.3110
17719THY    CA530290   4.937   6.146   1.690 -0.2671  0.6184 -0.2363
17719THY    CM130291   4.959   6.283   1.635 -0.1679  0.2293  0.3914
17719THY    HM130292   4.896   6.354   1.689 -0.3157 -1.6558  1.7812
17719THY    HM230293   4.942   6.290   1.527  0.3920  0.0754 -0.4724
17719THY    HM330294   5.066   6.306   1.642  0.1333 -1.1202 -0.4542
17719THY    CA630295   4.806   6.095   1.700 -0.2843  0.4162  0.1357
17719THY    HA630296   4.728   6.161   1.663  0.8702 -0.8571  0.8501
17720THY      O30297   5.212   8.368   3.136 -0.4818  0.0025 -0.3708
17720THY     HO30298   5.136   8.427   3.121 -1.3643 -0.9530 -1.6633
17720THY    CA130299   5.161   8.244   3.119 -0.2210 -0.2879  0.7824
17720THY    CA230300   5.233   8.137   3.093 -0.2439 -0.0874  0.1532
17720THY    CP130301   5.385   8.158   3.072  0.7017 -0.2885  0.3613
17720THY    HP130302   5.411   8.263   3.056  0.4756 -1.9687  0.1779
17720THY    CP230303   5.417   8.085   2.937 -0.1391  0.1194 -0.5074
17720THY    HP230304   5.522   8.097   2.907  0.2097  1.0258 -1.1269
17720THY    HP330305   5.358   8.113   2.849 -2.1331  1.2345 -0.9906
17720THY    HP430306   5.400   7.978   2.955  0.0769  0.0144 -0.5607
17720THY    CP330307   5.476   8.109   3.184  0.1000 -0.2761  0.4892
17720THY    HP530308   5.428   8.127   3.281 -0.2688 -0.5750  1.1567
17720THY    HP630309   5.572   8.162   3.192 -1.1774 -2.4764  3.4038
17720THY    HP730310   5.491   8.000   3.178 -1.4905  1.5309  0.1040
17720THY    CA330311   5.172   8.010   3.086 -0.3151 -0.1620 -0.2796
17720THY    HA330312   5.231   7.920   3.078  1.4891 -2.5725  1.0101
17720THY    CA430313   5.037   7.995   3.119  0.1970  0.7320 -0.6063
17720THY    HA430314   5.000   7.893   3.121  1.5726  2.8381 -1.1241
17720THY    CA530315   4.964   8.108   3.149  0.5710  0.3567 -0.0619
17720THY    CM130316   4.819   8.094   3.198  0.2519 -0.2319 -0.0258
17720THY    HM130317   4.832   8.087   3.306 -2.8869  0.1706 -1.2939
17720THY    HM230318   4.768   8.004   3.161 -2.3847 -0.5202  1.5069
17720THY    HM330319   4.757   8.181   3.175 -0.3911  1.4800  0.0105
17720THY    CA630320   5.021   8.232   3.143 -0.3522 -0.6252 -0.1111
17720THY    HA630321   4.960   8.320   3.161 -2.0653 -1.1489 -1.1377
17721THY      O30322   7.423   6.536   6.715 -0.1684  0.2916 -0.2754
17721THY     HO30323   7.380   6.453   6.689  1.7601 -0.6749 -1.0354
17721THY    CA130324   7.480   6.502   6.829 -0.9991  0.1402 -0.2243
17721THY    CA230325   7.574   6.591   6.897 -0.4711 -0.6103 -0.2074
17721THY    CP130326   7.621   6.723   6.828 -0.6839  0.2950  0.3916
17721THY    HP130327   7.528   6.763   6.787 -0.7073 -0.0156  0.0202
17721THY    CP230328   7.717   6.700   6.713  0.2247  0.5408 -0.0706
17721THY    HP230329   7.662   6.623   6.657  0.3889  0.8786 -0.4398
17721THY    HP330330   7.811   6.654   6.746 -0.6453  2.3181 -0.6754
17721THY    HP430331   7.731   6.795   6.661 -0.1867 -1.3763 -1.0027
17721THY    CP330332   7.676   6.835   6.917 -0.3860  0.4228  0.5072
17721THY    HP530333   7.597   6.860   6.988 -1.9457 -0.5018 -1.4558
17721THY    HP630334   7.707   6.922   6.857 -0.8639 -0.7603 -0.1072
17721THY    HP730335   7.770   6.806   6.965  0.2566 -1.0058  0.1310
17721THY    CA330336   7.627   6.554   7.022 -0.3077  0.2672 -0.3770
17721THY    HA330337   7.686   6.625   7.080 -1.7525 -1.3710  2.3326
17721THY    CA430338   7.603   6.426   7.077 -0.0578 -0.1162  0.0342
17721THY    HA430339   7.649   6.391   7.169  0.2940 -0.7598 -1.2508
17721THY    CA530340   7.518   6.343   7.010  0.3354  0.0695  1.0952
17721THY    CM130341   7.479   6.210   7.077  0.3375  0.0047  0.0138
17721THY    HM130342   7.373   6.187   7.060  0.1642  0.8329  0.1825
17721THY    HM230343   7.482   6.220   7.186 -1.5033  0.5606 -3.6318
17721THY    HM330344   7.544   6.127   7.048 -0.2877 -0.0988 -0.4460
17721THY    CA630345   7.456   6.371   6.891 -0.8704 -0.5551 -0.4323
17721THY    HA630346   7.390   6.302   6.839  0.0766 -1.4463 -0.6859
17722THY      O30347   3.400   3.476   6.695 -0.3351 -0.1801 -0.1974
17722THY     HO30348   3.475   3.446   6.641  0.2448  1.0108 -0.9481
17722THY    CA130349   3.391   3.399   6.807  0.1127  0.2131 -0.1884
17722THY    CA230350   3.374   3.451   6.939 -0.4186 -0.1276  0.8303
17722THY    CP130351   3.365   3.604   6.957 -0.3760  0.1221  0.2351
17722THY    HP130352   3.347   3.651   6.860  2.3434 -0.5240  0.1002
17722THY    CP230353   3.494   3.665   7.010 -0.7102 -0.0213 -0.5986
17722THY    HP230354   3.498   3.683   7.118  1.5162 -0.0864 -0.4255
17722THY    HP330355   3.503   3.761   6.956  0.4111 -1.3316 -1.4146
17722THY    HP430356   3.584   3.611   6.979  0.1977 -0.6472  1.1884
17722THY    CP330357   3.250   3.657   7.041  0.1729  0.6686  0.8475
17722THY    HP530358   3.250   3.766   7.025  2.2651  0.3140  0.8333
17722THY    HP630359   3.279   3.626   7.142  1.4525 -0.1414 -0.7153
17722THY    HP730360   3.155   3.608   7.018 -0.4742  0.6918  2.0428
17722THY    CA330361   3.379   3.358   7.053 -0.7174  0.2673 -0.2048
17722THY    HA330362   3.368   3.394   7.155 -0.0935 -0.7625  3.2758
17722THY    CA430363   3.389   3.225   7.022 -0.1006 -0.3359  0.2969
17722THY    HA430364   3.395   3.150   7.100 -2.3478 -0.6768 -0.3033
17722THY    CA530365   3.410   3.175   6.891  0.0330  0.0155  0.0481
17722THY    CM130366   3.402   3.029   6.865 -0.2484  0.1128  1.1785
17722THY    HM130367   3.501   2.985   6.878 -0.9712 -0.6409 -0.7966
17722THY    HM230368   3.371   3.017   6.760 -0.8965  0.4879 -0.6448
17722THY    HM330369   3.324   2.980   6.924  1.5359  0.7351 -1.0629
17722THY    CA630370   3.421   3.263   6.785  0.3855  0.1112  0.8272
17722THY    HA630371   3.464   3.231   6.690 -1.3980  0.3178 -2.6275
17723THY      O30372   1.985   3.684   3.729  0.4244  0.3537 -0.0146
17723THY     HO30373   1.974   3.675   3.825  0.2541  0.7465  3.2182
17723THY    CA130374   1.895   3.785   3.710 -0.2411 -0.5418  0.2771
17723THY    CA230375   1.818   3.797   3.595 -0.0079 -0.8949 -0.0641
17723THY    CP130376   1.831   3.703   3.482  0.0193  0.2648  0.5066
17723THY    HP130377   1.900   3.620   3.498 -0.9759 -1.5552 -0.7533
17723THY    CP230378   1.862   3.786   3.354 -0.4422 -0.0940 -0.3783
17723THY    HP230379   1.967   3.814   3.358 -0.8085  1.8411  0.8925
17723THY    HP330380   1.795   3.870   3.332 -0.6955 -0.5685 -0.6984
17723THY    HP430381   1.862   3.718   3.268 -1.6974 -1.4513  1.2504
17723THY    CP330382   1.703   3.631   3.463 -0.8236 -0.1968  0.2096
17723THY    HP530383   1.706   3.540   3.524  0.5861 -0.0600  0.3196
17723THY    HP630384   1.696   3.606   3.357  3.2977 -0.1346 -2.2195
17723THY    HP730385   1.615   3.688   3.495 -0.3941 -2.1929  2.0918
17723THY    CA330386   1.718   3.904   3.592  0.1782  0.1663  0.3929
17723THY    HA330387   1.649   3.921   3.509  0.7968 -0.1538  1.4254
17723THY    CA430388   1.706   3.998   3.696  0.0486  0.2024 -0.7340
17723THY    HA430389   1.626   4.071   3.687 -0.5382 -0.7524 -1.4658
17723THY    CA530390   1.778   3.979   3.810  0.0468  0.5814 -0.1674
17723THY    CM130391   1.766   4.077   3.932  0.4975 -0.0348  0.1205
17723THY    HM130392   1.869   4.111   3.949  0.3888 -0.8089  0.8612
17723THY    HM230393   1.723   4.030   4.021 -1.6466  0.4754  2.7559
17723THY    HM330394   1.712   4.172   3.920 -3.8872 -0.3171 -2.1708
17723THY    CA630395   1.885   3.882   3.812 -0.0194  0.5150 -0.2722
17723THY    HA630396   1.948   3.882   3.900 -1.1535  1.3704  1.0297
17724THY      O30397   4.670   8.524   4.955  0.1814  0.1376 -0.2287
17724THY     HO30398   4.720   8.464   4.897 -0.0237 -0.9131  0.5993
17724THY    CA130399   4.631   8.625   4.885  0.6399 -0.4219  0.1094
17724THY    CA230400   4.591   8.745   4.942 -0.0864 -0.0814 -0.3136
17724THY    CP130401   4.600   8.760   5.095  0.2803  0.3033 -0.2840
17724THY    HP130402   4.666   8.682   5.134 -1.8213  1.3212 -1.6481
17724THY    CP230403   4.463   8.744   5.161  0.5062 -0.3774 -0.0765
17724THY    HP230404   4.459   8.780   5.265 -3.1288 -0.7720  1.1082
17724THY    HP330405   4.444   8.636   5.166 -0.2811  1.0856  0.0977
17724THY    HP430406   4.386   8.791   5.098  0.6857 -2.1189 -1.9719
17724THY    CP330407   4.667   8.893   5.141  0.0554  0.8572 -0.0994
17724THY    HP530408   4.770   8.905   5.105 -0.2155 -0.3056 -1.0007
17724THY    HP630409   4.663   8.910   5.249 -0.5368  0.3198  4.2215
17724THY    HP730410   4.606   8.977   5.107  1.1132  1.1474  0.8141
17724THY    CA330411   4.555   8.849   4.856 -0.0288  0.3933  0.0588
17724THY    HA330412   4.513   8.939   4.901  0.6978  0.2403  0.4845
17724THY    CA430413   4.571   8.832   4.720 -0.0902  0.5246 -0.3233
17724THY    HA430414   4.547   8.916   4.657  0.1854 -2.8570 -2.6014
17724THY    CA530415   4.600   8.707   4.666 -0.2644  0.0721 -0.0003
17724THY    CM130416   4.595   8.689   4.521 -0.5072  0.3936  0.8627
17724THY    HM130417   4.680   8.739   4.472 -1.3134 -1.4617  0.5113
17724THY    HM230418   4.497   8.707   4.475 -0.1450 -1.8520 -2.1522
17724THY    HM330419   4.621   8.587   4.491  0.6111  0.1622  1.1998
17724THY    CA630420   4.628   8.600   4.749  0.4557 -0.0149 -0.0713
17724THY    HA630421   4.654   8.500   4.715 -3.0168 -1.4225 -0.6169
17725THY      O30422   3.587   2.259   3.767 -0.3321 -0.6511  0.4010
17725THY     HO30423   3.662   2.245   3.707  0.3365  0.5616 -1.6966
17725THY    CA130424   3.612   2.366   3.838 -0.0352 -1.0798 -0.6392
17725THY    CA230425   3.513   2.428   3.919 -0.4787 -0.2084  0.6132
17725THY    CP130426   3.369   2.359   3.931 -0.3247  0.6662  0.1573
17725THY    HP130427   3.349   2.313   3.833  0.1451 -1.0061  3.1945
17725THY    CP230428   3.252   2.454   3.938  0.4940 -0.0139 -0.6270
17725THY    HP230429   3.266   2.520   4.025 -0.9800  0.4355 -0.8589
17725THY    HP330430   3.162   2.392   3.945 -0.2034  0.6817  0.4269
17725THY    HP430431   3.250   2.514   3.846  1.0083  1.2087  1.3516
17725THY    CP330432   3.366   2.260   4.047  0.3630  0.5962  0.0289
17725THY    HP530433   3.435   2.185   4.005  0.3720 -0.5480  0.6637
17725THY    HP630434   3.272   2.204   4.050  1.3362 -1.2270 -1.8567
17725THY    HP730435   3.390   2.294   4.148  0.7733  0.2385  0.8198
17725THY    CA330436   3.548   2.536   3.995  0.9479  0.4854 -0.1238
17725THY    HA330437   3.472   2.574   4.062 -0.7245 -1.6639  0.4938
17725THY    CA430438   3.675   2.594   3.984  0.0628 -0.4180 -0.2327
17725THY    HA430439   3.709   2.683   4.037 -0.9916 -3.5193  2.1929
17725THY    CA530440   3.771   2.538   3.899  0.6053 -0.6912 -0.0158
17725THY    CM130441   3.911   2.598   3.879  0.2393 -0.4303  0.2835
17725THY    HM130442   3.909   2.690   3.820 -1.2122 -0.2543  0.3863
17725THY    HM230443   3.988   2.531   3.840  0.6883  1.8181 -0.6202
17725THY    HM330444   3.954   2.635   3.972 -0.5112 -1.1165  3.0955
17725THY    CA630445   3.739   2.422   3.830  1.0462  0.4802 -0.0713
17725THY    HA630446   3.818   2.356   3.795  0.5370  0.9709 -0.9514
17726THY      O30447   7.987   9.167   3.789 -0.2568  0.2371 -0.7170
17726THY     HO30448   7.901   9.158   3.832 -0.8028 -0.5692  0.3070
17726THY    CA130449   7.962   9.144   3.660 -0.0378 -0.4560  0.7431
17726THY    CA230450   8.056   9.146   3.557  0.3175  0.1113  0.4853
17726THY    CP130451   8.201   9.185   3.593  0.3158 -0.3511  0.5424
17726THY    HP130452   8.214   9.200   3.701 -0.7090 -0.2099  0.4887
17726THY    CP230453   8.231   9.319   3.524  0.4058  0.2098 -0.7291
17726THY    HP230454   8.338   9.342   3.533  0.1559  1.1204  0.1393
17726THY    HP330455   8.172   9.403   3.563  0.7251  1.7341 -1.1708
17726THY    HP430456   8.211   9.315   3.416 -0.3158  0.2798  0.3810
17726THY    CP330457   8.301   9.082   3.550 -0.4470 -0.1586 -0.0424
17726THY    HP530458   8.302   9.079   3.440 -2.9041 -0.2504  0.6135
17726THY    HP630459   8.274   8.980   3.581 -1.1898 -1.2246 -0.1796
17726THY    HP730460   8.404   9.108   3.579 -0.4892 -0.5520  0.5834
17726THY    CA330461   8.020   9.093   3.425 -0.2204  0.1474 -0.9404
17726THY    HA330462   8.082   9.086   3.336 -0.1105  0.1101  0.2964
17726THY    CA430463   7.888   9.066   3.398  0.3764  0.0085 -0.5931
17726THY    HA430464   7.852   9.031   3.301  0.1995 -0.8273  1.7152
17726THY    CA530465   7.795   9.080   3.503  0.3009 -0.5749 -0.5113
17726THY    CM130466   7.653   9.054   3.478  0.4529  0.4661  0.2551
17726THY    HM130467   7.581   9.070   3.559  0.0796  0.2463 -0.2918
17726THY    HM230468   7.634   8.959   3.428 -2.2127 -1.4984  1.6922
17726THY    HM330469   7.622   9.129   3.405 -1.3649  0.0369 -0.8650
17726THY    CA630470   7.833   9.107   3.635 -0.2357  0.0143 -0.7978
17726THY    HA630471   7.763   9.111   3.717  0.3681  0.6400 -2.3888
17727THY      O30472   9.215   0.952   2.125  0.5450 -0.3230 -0.3523
17727THY     HO30473   9.273   0.913   2.192  1.0554 -0.4972  0.0893
17727THY    CA130474   9.105   0.870   2.113 -0.0780  0.3998 -0.5236
17727THY    CA230475   8.988   0.925   2.060  0.1640 -0.0217 -0.4267
17727THY    CP130476   8.985   1.077   2.015  0.1717 -0.1969 -0.5938
17727THY    HP130477   9.074   1.131   2.050 -0.1403  1.5819 -1.1566
17727THY    CP230478   8.865   1.159   2.065 -0.2666 -0.3515 -0.4543
17727THY    HP230479   8.864   1.154   2.175  3.0894 -0.2271 -0.5633
17727THY    HP330480   8.769   1.120   2.028 -0.0273 -0.5963 -0.8154
17727THY    HP430481   8.878   1.264   2.037 -0.5378 -0.8821 -0.5569
17727THY    CP330482   8.992   1.074   1.860 -0.0222 -0.1696  0.1024
17727THY    HP530483   8.914   1.005   1.823 -0.8614 -0.9015  1.4004
17727THY    HP630484   9.086   1.028   1.828  0.1721  0.0713  0.3317
17727THY    HP730485   8.996   1.177   1.824 -4.1539  0.9557  0.8350
17727THY    CA330486   8.877   0.841   2.050 -0.2727  0.6443 -0.5688
17727THY    HA330487   8.783   0.888   2.020  0.0764  0.7355  0.2015
17727THY    CA430488   8.889   0.708   2.090  0.1856  0.3631 -0.6251
17727THY    HA430489   8.805   0.639   2.095  0.0145  3.5278 -0.3248
17727THY    CA530490   9.007   0.654   2.146  0.0413  0.2356 -0.2649
17727THY    CM130491   9.013   0.508   2.179 -0.5527 -0.2980 -0.3649
17727THY    HM130492   9.099   0.479   2.242 -0.1202 -0.3557  0.7261
17727THY    HM230493   9.008   0.447   2.088  1.7002  0.1125 -1.2650
17727THY    HM330494   8.923   0.492   2.239 -1.2907 -1.0435  0.8412
17727THY    CA630495   9.119   0.737   2.153 -0.3777  0.9120 -0.3649
17727THY    HA630496   9.218   0.702   2.183 -0.9018  0.5742 -2.2692
17728THY      O30497   6.903   4.538   7.450  0.5131 -0.7024 -0.4497
17728THY     HO30498   6.902   4.632   7.477 -1.0530 -3.7180  0.5180
17728THY    CA130499   6.848   4.477   7.556 -0.3328 -0.2613 -0.0923
17728THY    CA230500   6.827   4.341   7.563  0.6017  0.7477  0.9165
17728THY    CP130501   6.871   4.242   7.444 -0.5729 -0.2249 -0.4000
17728THY    HP130502   6.899   4.298   7.354  0.8277  0.7651  0.5623
17728THY    CP230503   6.748   4.150   7.405 -0.8911 -0.0895 -0.2264
17728THY    HP230504   6.658   4.209   7.386 -0.2096 -3.1058 -0.0002
17728THY    HP330505   6.718   4.081   7.484 -0.7015  1.3700  1.3064
17728THY    HP430506   6.768   4.098   7.310  1.1616  1.5042 -2.6335
17728THY    CP330507   7.000   4.165   7.480 -0.2755  0.3285 -0.0276
17728THY    HP530508   7.085   4.234   7.476 -0.1187  0.0130 -0.2373
17728THY    HP630509   7.021   4.088   7.405  1.2748  1.0709 -0.3529
17728THY    HP730510   6.995   4.115   7.578 -0.7117  0.6641  0.6596
17728THY    CA330511   6.773   4.291   7.685  0.5026 -0.0069  0.1599
17728THY    HA330512   6.772   4.183   7.701  0.1467  1.7253  0.3820
17728THY    CA430513   6.743   4.381   7.787 -0.0086 -0.1191  0.6065
17728THY    HA430514   6.706   4.345   7.883  0.1297 -0.4108 -0.3312
17728THY    CA530515   6.760   4.517   7.770 -0.5611 -0.3392  0.0581
17728THY    CM130516   6.725   4.619   7.865  0.1713  0.2357 -0.1083
17728THY    HM130517   6.651   4.686   7.820  2.0406  2.5938  3.9654
17728THY    HM230518   6.807   4.690   7.882  0.1970 -3.8367  1.0637
17728THY    HM330519   6.690   4.580   7.962 -1.6623 -0.9355 -1.5255
17728THY    CA630520   6.815   4.563   7.653 -0.0838  0.3696  0.5048
17728THY    HA630521   6.831   4.670   7.648  0.1655  1.0918  0.5071
17729THY      O30522   8.899   8.690   3.306  0.8688 -0.2413 -0.6687
17729THY     HO30523   8.889   8.738   3.222 -1.4087 -0.3164 -1.1474
17729THY    CA130524   9.036   8.671   3.324 -0.6960  0.8960 -0.1908
17729THY    CA230525   9.100   8.546   3.289 -0.6725 -0.6650  0.4094
17729THY    CP130526   9.024   8.426   3.262  0.3846  0.1072 -0.5072
17729THY    HP130527   8.916   8.445   3.257  0.6780  0.5025  1.5617
17729THY    CP230528   9.043   8.326   3.369  0.0952 -0.8515  0.1804
17729THY    HP230529   8.978   8.351   3.454 -4.0276 -3.2719 -1.2739
17729THY    HP330530   9.144   8.316   3.409 -0.5736  0.7185 -0.8059
17729THY    HP430531   9.008   8.226   3.339 -0.4137 -0.8923  0.3653
17729THY    CP330532   9.072   8.358   3.133 -0.2907 -0.3304  0.4074
17729THY    HP530533   9.074   8.441   3.063  0.2956  0.2521  0.8963
17729THY    HP630534   8.998   8.284   3.098 -1.4042  2.6783 -0.0771
17729THY    HP730535   9.175   8.322   3.138 -0.4981  2.3510 -0.0848
17729THY    CA330536   9.242   8.547   3.303 -0.0375 -0.3945  1.3170
17729THY    HA330537   9.286   8.447   3.296 -2.0943 -1.1669  0.4192
17729THY    CA430538   9.315   8.659   3.337 -0.1514  0.2841  0.4235
17729THY    HA430539   9.423   8.650   3.342  0.0001  0.3373  2.0050
17729THY    CA530540   9.251   8.775   3.371  0.0610  0.0943  0.0411
17729THY    CM130541   9.335   8.896   3.403  0.4575  0.5685  0.3113
17729THY    HM130542   9.400   8.912   3.316  1.6738  0.8082 -2.7230
17729THY    HM230543   9.403   8.875   3.485  1.0077  0.1073  0.2726
17729THY    HM330544   9.271   8.979   3.434 -2.0973 -0.2717 -1.2248
17729THY    CA630545   9.109   8.781   3.362 -0.5525 -0.5787 -0.1411
17729THY    HA630546   9.072   8.882   3.372  2.4210  1.7889  0.8578
17730THY      O30547   3.008   0.625   3.906 -0.1068 -0.0614 -0.0619
17730THY     HO30548   3.090   0.594   3.947 -0.0401 -0.8007 -0.9108
17730THY    CA130549   2.925   0.646   4.012 -0.8757  0.4973  0.2744
17730THY    CA230550   2.806   0.713   4.000 -0.1962 -1.2027 -1.0855
17730THY    CP130551   2.760   0.775   3.871  0.3531  0.4494  0.2113
17730THY    HP130552   2.839   0.780   3.794  0.0100  0.1656  1.7639
17730THY    CP230553   2.722   0.925   3.893 -0.0621 -0.3126 -0.1914
17730THY    HP230554   2.741   0.976   3.798  0.7744  0.2970  0.6871
17730THY    HP330555   2.791   0.972   3.964 -0.6425 -0.7180  1.3335
17730THY    HP430556   2.624   0.943   3.941  0.2146 -0.2544  1.3549
17730THY    CP330557   2.633   0.700   3.812  0.2610  0.0586  0.9689
17730THY    HP530558   2.620   0.714   3.704 -0.6021  0.0689  0.3331
17730THY    HP630559   2.543   0.738   3.862 -0.3747 -0.1558 -0.2085
17730THY    HP730560   2.637   0.591   3.826 -0.5239  0.1059  0.9442
17730THY    CA330561   2.727   0.723   4.119  0.3521  0.0641  1.2038
17730THY    HA330562   2.627   0.765   4.110 -0.1161 -4.9087 -0.3062
17730THY    CA430563   2.766   0.673   4.239  1.1044  0.0364  0.2921
17730THY    HA430564   2.703   0.699   4.324 -2.1584 -2.2176  0.3336
17730THY    CA530565   2.894   0.613   4.252  0.3203  0.2003 -0.4611
17730THY    CM130566   2.961   0.593   4.382 -0.3623 -0.0307 -0.2929
17730THY    HM130567   2.897   0.540   4.453  1.8500  1.6606 -0.8423
17730THY    HM230568   2.989   0.693   4.418  2.9852 -2.0330 -0.3609
17730THY    HM330569   3.052   0.537   4.359  0.2763 -1.8841  1.3997
17730THY    CA630570   2.971   0.599   4.133 -0.1816  0.1627 -0.1351
17730THY    HA630571   3.072   0.559   4.136 -0.1475  3.0655 -0.0240
17731THY      O30572   2.683   2.384   3.073  0.5509  0.4159 -0.0468
17731THY     HO30573   2.752   2.337   3.022 -1.5728 -3.6124  0.7767
17731THY    CA130574   2.678   2.333   3.194 -0.2151  0.8230  0.6543
17731THY    CA230575   2.612   2.386   3.300 -0.1461 -0.0237 -0.7373
17731THY    CP130576   2.540   2.525   3.285  0.2382  0.3186  0.7425
17731THY    HP130577   2.572   2.569   3.190  0.7970  0.9351  1.7053
17731THY    CP230578   2.564   2.632   3.388 -0.1722 -0.1103  0.6433
17731THY    HP230579   2.672   2.621   3.406 -0.3162 -0.5884 -2.4640
17731THY    HP330580   2.515   2.604   3.482 -1.0808 -0.4025  1.2061
17731THY    HP430581   2.544   2.739   3.376 -1.3436  1.7519  0.6928
17731THY    CP330582   2.391   2.512   3.279 -0.0993 -0.0826  0.0949
17731THY    HP530583   2.355   2.436   3.350 -1.0666 -1.5602 -0.8829
17731THY    HP630584   2.368   2.474   3.178  2.4915 -0.2761 -1.2447
17731THY    HP730585   2.340   2.609   3.281 -0.0083 -1.4532  0.1879
17731THY    CA330586   2.613   2.319   3.424 -0.0844 -0.6394  0.1002
17731THY    HA330587   2.553   2.357   3.506 -0.8476 -1.5562  0.9113
17731THY    CA430588   2.677   2.198   3.434  0.3946  0.5647 -0.4175
17731THY    HA430589   2.665   2.137   3.523 -0.8593  0.2455 -0.6530
17731THY    CA530590   2.752   2.149   3.329  0.6331  0.3498 -0.5361
17731THY    CM130591   2.826   2.020   3.345 -0.3092  0.1471 -0.2365
17731THY    HM130592   2.764   1.949   3.400  0.9269  0.4608 -1.1089
17731THY    HM230593   2.917   2.026   3.407 -1.1577  1.3519  0.6081
17731THY    HM330594   2.847   1.978   3.246 -1.2523 -0.9122  1.6457
17731THY    CA630595   2.754   2.220   3.208  0.4694 -0.5891  0.8651
17731THY    HA630596   2.804   2.179   3.120 -2.7210 -1.9490 -0.4137
17732THY      O30597   8.312   2.981   4.841 -0.0505 -0.3931 -0.1332
17732THY     HO30598   8.365   3.001   4.762 -2.4271 -2.1171 -0.2693
17732THY    CA130599   8.373   2.885   4.913 -0.0600  0.5031  0.0026
17732THY    CA230600   8.311   2.769   4.964  0.0411  0.2111 -0.5806
17732THY    CP130601   8.165   2.750   4.929  0.2861 -0.3251 -0.4498
17732THY    HP130602   8.124   2.843   4.887 -0.2272 -0.3854 -0.6984
17732THY    CP230603   8.079   2.735   5.055  0.2865 -0.3676 -0.0344
17732THY    HP230604   7.972   2.734   5.031  0.0441  0.6786 -0.6655
17732THY    HP330605   8.083   2.810   5.135 -1.5663 -2.1717  2.1569
17732THY    HP430606   8.095   2.637   5.101 -0.7045 -0.5205 -0.2765
17732THY    CP330607   8.148   2.631   4.829  0.7208 -0.4144  0.4030
17732THY    HP530608   8.177   2.668   4.730 -1.6709 -0.3961  2.6646
17732THY    HP630609   8.042   2.604   4.819  0.5736 -0.2017  0.8803
17732THY    HP730610   8.188   2.542   4.879 -2.9752  0.7762 -0.7785
17732THY    CA330611   8.382   2.681   5.054  0.3755 -0.0909 -0.2428
17732THY    HA330612   8.329   2.598   5.099  0.5883  1.5601  0.4681
17732THY    CA430613   8.513   2.700   5.081  0.0533  0.7281 -0.7478
17732THY    HA430614   8.575   2.643   5.150  1.0867  3.1673  2.9857
17732THY    CA530615   8.570   2.828   5.030 -0.1910 -0.8637  0.8108
17732THY    CM130616   8.704   2.867   5.088  0.4634  0.2181  0.2556
17732THY    HM130617   8.710   2.977   5.091 -1.1643  0.3941  0.3723
17732THY    HM230618   8.791   2.820   5.042  1.0627  0.3746  1.1942
17732THY    HM330619   8.732   2.834   5.188  2.0028 -0.6041 -1.0468
17732THY    CA630620   8.500   2.915   4.951  0.5523 -0.4505  0.3448
17732THY    HA630621   8.554   3.003   4.918 -0.0174  0.5862  1.1113
17733THY      O30622   5.710   3.997   1.829  0.6790 -0.7080 -0.4435
17733THY     HO30623   5.702   4.011   1.733  0.8191 -1.0564 -2.4654
17733THY    CA130624   5.605   3.921   1.862 -0.4113 -0.3522 -0.0409
17733THY    CA230625   5.550   3.923   1.993  0.4467  0.6451  0.7467
17733THY    CP130626   5.612   4.002   2.109 -0.2232 -0.2255  1.5470
17733THY    HP130627   5.692   4.058   2.060  1.1121  0.1339  0.0243
17733THY    CP230628   5.686   3.902   2.216 -0.6440 -0.7335 -0.9265
17733THY    HP230629   5.616   3.842   2.277  1.2265  1.2546 -1.2083
17733THY    HP330630   5.743   3.956   2.292  0.9671 -0.9563 -2.2488
17733THY    HP430631   5.748   3.832   2.159  1.2676 -0.9572  0.8582
17733THY    CP330632   5.523   4.102   2.179 -0.2172 -0.0553 -0.2068
17733THY    HP530633   5.455   4.150   2.107  0.3393  0.5584  1.5717
17733THY    HP630634   5.584   4.183   2.220 -2.0925  1.5963  0.4557
17733THY    HP730635   5.460   4.067   2.262  0.1588  1.2115  1.8966
17733THY    CA330636   5.426   3.858   2.010  0.6667 -0.1535  0.5182
17733THY    HA330637   5.387   3.847   2.111  0.6166 -0.4212 -2.8231
17733THY    CA430638   5.363   3.797   1.903 -0.1177  0.3541 -0.5085
17733THY    HA430639   5.267   3.748   1.917 -0.7115 -0.0777  0.4886
17733THY    CA530640   5.424   3.803   1.781  0.2634 -0.6059 -0.2025
17733THY    CM130641   5.352   3.751   1.656  0.1570  0.2607 -0.2513
17733THY    HM130642   5.402   3.667   1.605 -0.3446  0.0521 -0.4224
17733THY    HM230643   5.350   3.829   1.580  0.8112  0.9444  0.4561
17733THY    HM330644   5.250   3.723   1.683  0.4084 -0.9768 -2.5976
17733THY    CA630645   5.548   3.857   1.758 -0.8914 -0.1376 -0.1814
17733THY    HA630646   5.587   3.849   1.657  0.9483  0.5664 -0.4801
17734THY      O30647   3.083   2.104   6.391  0.5818  0.3770  0.0932
17734THY     HO30648   3.168   2.150   6.400  1.0811  0.4217 -0.7992
17734THY    CA130649   2.998   2.207   6.370 -0.6629  0.2173  0.3672
17734THY    CA230650   2.869   2.184   6.335 -0.0347  0.0528 -0.2053
17734THY    CP130651   2.810   2.045   6.330 -0.1799 -0.7782 -0.0338
17734THY    HP130652   2.861   1.983   6.404  0.8197 -0.4299  1.1740
17734THY    CP230653   2.831   1.979   6.195  0.2554  0.2860  1.1463
17734THY    HP230654   2.757   1.898   6.194 -2.0996  2.8822  3.0564
17734THY    HP330655   2.935   1.944   6.194  0.2033 -0.3694  1.0061
17734THY    HP430656   2.814   2.041   6.106  0.7228 -2.0275 -1.8221
17734THY    CP330657   2.661   2.036   6.366  0.1162  0.6128 -0.4287
17734THY    HP530658   2.622   2.083   6.276  2.4678  0.3425  1.1635
17734THY    HP630659   2.639   2.097   6.455 -2.3587 -0.5646  0.5356
17734THY    HP730660   2.627   1.934   6.387  0.0049  3.2096  0.0618
17734THY    CA330661   2.796   2.295   6.302 -0.2048  0.2176 -0.2337
17734THY    HA330662   2.697   2.270   6.264 -0.0181  0.6652 -1.7310
17734THY    CA430663   2.843   2.431   6.314  0.8505 -0.3291 -0.2529
17734THY    HA430664   2.784   2.521   6.298 -1.2414  1.3506 -1.2541
17734THY    CA530665   2.975   2.441   6.358  0.2936  0.4280 -0.9530
17734THY    CM130666   3.029   2.578   6.383 -0.3822  0.5975  0.5345
17734THY    HM130667   2.944   2.643   6.403  0.2475  2.1391  0.9247
17734THY    HM230668   3.073   2.607   6.286 -0.3563  0.6238  0.5828
17734THY    HM330669   3.097   2.576   6.470  0.8408 -0.2780  1.5732
17734THY    CA630670   3.054   2.330   6.366 -0.3227 -0.6501 -0.1063
17734THY    HA630671   3.157   2.339   6.398  0.0432 -1.3651 -1.5217
17735THY      O30672   2.313   5.060   5.919  0.8609  0.4418  0.3001
17735THY     HO30673   2.314   5.074   6.015  2.1480  0.5424 -0.3335
17735THY    CA130674   2.260   4.943   5.888 -0.0597  0.1075  0.2808
17735THY    CA230675   2.127   4.933   5.841 -0.3543 -0.4392 -0.3320
17735THY    CP130676   2.039   5.063   5.833 -0.5124 -0.1156  0.6392
17735THY    HP130677   2.086   5.152   5.875 -0.7459  0.3795  0.5318
17735THY    CP230678   1.913   5.053   5.922 -0.2812 -0.1939  0.4897
17735THY    HP230679   1.942   5.030   6.025  0.9948 -0.8581 -1.0751
17735THY    HP330680   1.841   4.976   5.891 -0.5165  0.5929  0.3833
17735THY    HP430681   1.852   5.144   5.913 -2.7801 -1.4509 -1.2042
17735THY    CP330682   1.994   5.087   5.689  0.2598 -0.4097 -0.7829
17735THY    HP530683   2.088   5.106   5.636  2.0014  1.8891 -2.3759
17735THY    HP630684   1.929   5.175   5.692 -1.2763  1.9589 -1.9007
17735THY    HP730685   1.928   5.004   5.662 -2.4350  0.8543  0.8205
17735THY    CA330686   2.073   4.805   5.805  0.1227  0.7179 -0.3914
17735THY    HA330687   1.978   4.796   5.753  0.1559  0.2427  1.5004
17735THY    CA430688   2.153   4.692   5.818 -0.6416  0.4133 -0.1546
17735THY    HA430689   2.108   4.603   5.775 -2.2090  1.4408  0.1169
17735THY    CA530690   2.291   4.707   5.850 -0.4959  0.7425 -1.0314
17735THY    CM130691   2.379   4.582   5.850 -0.4685 -0.1808 -0.2389
17735THY    HM130692   2.361   4.526   5.758  1.1480  1.2711 -3.4437
17735THY    HM230693   2.361   4.522   5.940  1.6079 -0.2792 -1.1155
17735THY    HM330694   2.486   4.608   5.853 -0.3327 -1.5370 -0.5894
17735THY    CA630695   2.343   4.826   5.900  0.2392  0.2205 -0.0764
17735THY    HA630696   2.447   4.834   5.931  1.3215 -2.6107 -1.5254
17736THY      O30697   1.839   7.645   4.735  0.6660 -0.2214  0.0005
17736THY     HO30698   1.821   7.714   4.801 -0.4082 -0.8680  0.3517
17736THY    CA130699   1.748   7.544   4.748 -0.2899 -0.4534 -1.2306
17736THY    CA230700   1.724   7.455   4.643 -0.9184  0.6187 -0.4545
17736THY    CP130701   1.800   7.459   4.506  0.5399  0.2490 -0.2135
17736THY    HP130702   1.893   7.514   4.527 -1.5557  5.4023  2.0486
17736THY    CP230703   1.714   7.555   4.413  0.1841 -0.3099  0.3340
17736THY    HP230704   1.737   7.550   4.306 -0.3318 -0.5812  2.6901
17736THY    HP330705   1.726   7.659   4.444  0.3018 -1.0955  0.5612
17736THY    HP430706   1.609   7.525   4.427  0.6913 -0.6411 -1.8213
17736THY    CP330707   1.837   7.321   4.452 -0.5309  0.3803 -0.5484
17736THY    HP530708   1.889   7.256   4.523 -0.5243  0.9862  0.0991
17736THY    HP630709   1.909   7.338   4.370 -0.2838  0.6955 -0.0378
17736THY    HP730710   1.750   7.265   4.415 -1.6011 -1.0862  1.8998
17736THY    CA330711   1.633   7.352   4.669  0.0537  0.4209 -0.5615
17736THY    HA330712   1.616   7.279   4.590  2.2663  1.2300 -2.0491
17736THY    CA430713   1.578   7.333   4.801  0.1273 -0.1799 -0.1810
17736THY    HA430714   1.511   7.249   4.817 -1.3852 -3.1835  0.3485
17736THY    CA530715   1.591   7.431   4.900 -0.4576 -0.1581 -0.0226
17736THY    CM130716   1.532   7.408   5.034  0.1058 -0.0806 -0.9075
17736THY    HM130717   1.577   7.481   5.102  0.3176  0.3808 -1.4633
17736THY    HM230718   1.567   7.307   5.058 -0.3555 -2.9252 -1.8332
17736THY    HM330719   1.423   7.418   5.036 -0.2294 -5.5554 -0.6584
17736THY    CA630720   1.687   7.534   4.875 -0.0561  0.1112 -0.0630
17736THY    HA630721   1.718   7.594   4.960  0.4874  0.5280 -0.9131
17737THY      O30722   9.006   1.884   6.232  0.3977 -0.4935 -0.7457
17737THY     HO30723   9.009   1.924   6.143 -0.5207 -0.6788 -1.0781
17737THY    CA130724   9.005   1.746   6.208  1.3266  0.4177 -0.1518
17737THY    CA230725   9.002   1.643   6.310 -0.7727 -0.4332  0.1999
17737THY    CP130726   9.004   1.678   6.460  0.5376  0.1275  0.1471
17737THY    HP130727   9.033   1.783   6.471 -0.6488 -0.0635  0.5007
17737THY    CP230728   9.103   1.600   6.538  0.2880 -0.4916 -0.4930
17737THY    HP230729   9.189   1.589   6.472 -0.7103 -1.7221 -1.1313
17737THY    HP330730   9.071   1.495   6.543  0.3766 -1.1646 -0.5570
17737THY    HP430731   9.114   1.640   6.640  1.0061 -0.6030 -0.3850
17737THY    CP330732   8.861   1.664   6.514  0.6307  0.1181 -0.6011
17737THY    HP530733   8.793   1.739   6.470 -2.2171  0.7846 -2.6455
17737THY    HP630734   8.865   1.681   6.622 -1.2035 -0.1137  2.1136
17737THY    HP730735   8.813   1.566   6.504 -0.0906  0.5441 -0.3029
17737THY    CA330736   9.026   1.508   6.268  0.6216  0.3160 -0.2746
17737THY    HA330737   9.022   1.421   6.332  0.6396  0.7662  0.0480
17737THY    CA430738   9.023   1.485   6.132  0.5084  0.5401  0.3947
17737THY    HA430739   9.032   1.384   6.094  0.1880 -0.1634  0.6232
17737THY    CA530740   9.030   1.588   6.034 -0.7420 -0.4978 -0.4795
17737THY    CM130741   9.030   1.552   5.892  0.1559  0.2372 -0.9757
17737THY    HM130742   9.087   1.462   5.865  1.3093  0.6831 -0.3978
17737THY    HM230743   9.077   1.628   5.828 -0.2148  0.4518 -0.5606
17737THY    HM330744   8.924   1.552   5.864 -0.3370  1.7812  1.5407
17737THY    CA630745   9.024   1.720   6.076 -0.0322 -0.1925 -0.1562
17737THY    HA630746   9.022   1.801   6.003  3.2869  1.8956  2.0555
17738THY      O30747   2.134   5.941   5.000  0.1653  0.5778  0.8516
17738THY     HO30748   2.182   5.889   5.066  0.0866 -0.8894 -1.2015
17738THY    CA130749   2.028   5.864   4.976 -0.0545 -0.5264 -0.6079
17738THY    CA230750   1.936   5.886   4.871  0.2696 -0.0858 -0.2703
17738THY    CP130751   1.924   6.025   4.795  0.4905  0.4304  0.3457
17738THY    HP130752   1.958   6.104   4.863 -1.3517 -1.0732  2.5477
17738THY    CP230753   1.781   6.075   4.766 -0.0866  0.4204 -0.2904
17738THY    HP230754   1.750   6.025   4.673 -0.7799 -0.3512  1.4698
17738THY    HP330755   1.785   6.184   4.758 -0.1393  0.6783 -0.2696
17738THY    HP430756   1.721   6.048   4.854  0.2094  1.9096  3.3781
17738THY    CP330757   2.004   6.022   4.668 -0.1781  0.6609 -0.4668
17738THY    HP530758   2.111   6.000   4.682 -0.1156  0.5744 -0.2324
17738THY    HP630759   1.988   6.118   4.618 -1.5505 -0.6418 -1.3380
17738THY    HP730760   1.969   5.944   4.599  1.1085 -0.6022  0.0124
17738THY    CA330761   1.860   5.778   4.831 -0.0407  0.6211  0.2230
17738THY    HA330762   1.785   5.797   4.755  1.1638 -0.0362  2.7320
17738THY    CA430763   1.868   5.651   4.885  0.4644  0.3746  0.1607
17738THY    HA430764   1.809   5.562   4.861 -0.0474  1.8114  0.0898
17738THY    CA530765   1.951   5.635   5.000 -0.2595  0.3867 -0.1887
17738THY    CM130766   1.959   5.497   5.073  0.0706  0.3177 -0.1768
17738THY    HM130767   1.889   5.434   5.016  0.3576  1.8379 -1.9387
17738THY    HM230768   1.912   5.500   5.172  1.7331  1.1982 -1.4515
17738THY    HM330769   2.062   5.460   5.072 -0.1320  0.5713 -0.7590
17738THY    CA630770   2.023   5.737   5.047 -0.6420  0.1571  0.4465
17738THY    HA630771   2.077   5.720   5.140 -1.6753  1.1989  2.4772
17739THY      O30772   9.278   1.129   6.681 -0.2310  0.2337  0.3475
17739THY     HO30773   9.361   1.082   6.700  0.4450 -0.6027  1.1635
17739THY    CA130774   9.290   1.182   6.554  0.8816 -1.5520 -0.7963
17739THY    CA230775   9.204   1.140   6.449 -0.2291 -0.0689  0.3061
17739THY    CP130776   9.121   1.021   6.469  0.3545  0.4471  0.6357
17739THY    HP130777   9.095   1.006   6.574 -0.5313  0.0930 -0.4445
17739THY    CP230778   9.190   0.892   6.418  0.7625  0.1643 -0.3559
17739THY    HP230779   9.154   0.809   6.479 -0.0202  3.2962  2.1055
17739THY    HP330780   9.299   0.907   6.421  1.0840 -0.1983 -2.3317
17739THY    HP430781   9.163   0.880   6.312 -1.6302  0.3964  1.9658
17739THY    CP330782   8.987   1.047   6.402  0.4479  0.3895 -0.3878
17739THY    HP530783   8.908   0.980   6.438 -0.5715 -0.5457  0.2855
17739THY    HP630784   8.993   1.027   6.295 -0.9386 -0.0399  1.3129
17739THY    HP730785   8.946   1.145   6.427 -0.5641  0.8888 -0.9153
17739THY    CA330786   9.222   1.202   6.327  0.0676 -0.7580  0.8405
17739THY    HA330787   9.164   1.158   6.246  0.0913 -0.7453  0.7870
17739THY    CA430788   9.331   1.288   6.301  0.1784  0.3663  0.0272
17739THY    HA430789   9.355   1.321   6.200 -0.9598  0.2372  0.5091
17739THY    CA530790   9.404   1.330   6.411  0.3127 -0.0005  0.2219
17739THY    CM130791   9.508   1.435   6.390  0.1120  0.4491  0.2274
17739THY    HM130792   9.553   1.419   6.291 -1.0787 -0.4117  1.7743
17739THY    HM230793   9.584   1.433   6.468 -0.0957  0.6774  0.9400
17739THY    HM330794   9.468   1.536   6.371  1.8868  0.6836  1.0030
17739THY    CA630795   9.381   1.284   6.540  0.0149 -0.6810 -0.1102
17739THY    HA630796   9.430   1.319   6.630  0.8669 -0.9722 -0.5399
17740THY      O30797   4.152   0.549   5.588  0.0850 -0.6926  0.3878
17740THY     HO30798   4.164   0.614   5.517  0.0660  0.4803  1.7235
17740THY    CA130799   4.102   0.631   5.681  0.7112  0.5438 -0.2634
17740THY    CA230800   4.043   0.577   5.797 -0.3257 -0.1389 -0.3001
17740THY    CP130801   4.032   0.426   5.815  0.1776  0.3893 -0.3358
17740THY    HP130802   4.023   0.373   5.719 -0.6083  0.1961  0.1278
17740THY    CP230803   3.905   0.383   5.883  0.4094  0.4297 -0.0357
17740THY    HP230804   3.887   0.277   5.864 -0.7560  0.2026  0.1904
17740THY    HP330805   3.818   0.440   5.848 -0.1366  0.6288 -0.7213
17740THY    HP430806   3.915   0.392   5.992 -1.8899  0.7598 -0.6963
17740THY    CP330807   4.145   0.366   5.895  0.2250  0.0569  0.7303
17740THY    HP530808   4.234   0.403   5.844 -1.3122 -4.1559 -0.8256
17740THY    HP630809   4.159   0.257   5.890  0.2350 -0.7776  0.7661
17740THY    HP730810   4.146   0.387   6.003 -1.2766  0.4303 -0.8231
17740THY    CA330811   3.995   0.667   5.899 -0.1864  0.0151 -0.0341
17740THY    HA330812   3.946   0.641   5.992  0.2856  0.1982 -0.2980
17740THY    CA430813   4.029   0.799   5.884  0.4159 -0.0703  0.1658
17740THY    HA430814   4.001   0.870   5.962  0.9039 -2.0893  2.7300
17740THY    CA530815   4.082   0.853   5.770  0.3428  1.0239  0.3807
17740THY    CM130816   4.094   0.998   5.757 -0.3883 -0.7270 -1.0711
17740THY    HM130817   4.192   1.026   5.718 -0.6191 -1.3372 -1.0971
17740THY    HM230818   4.075   1.050   5.852 -0.6925 -0.8689 -0.9216
17740THY    HM330819   4.014   1.041   5.696  0.4894 -0.0887  1.6822
17740THY    CA630820   4.119   0.761   5.664  0.7480  0.5249 -0.0750
17740THY    HA630821   4.174   0.801   5.579  0.5739  0.2178 -0.4847
17741THY      O30822   8.707   3.234   6.122  0.7410  0.2137  0.1657
17741THY     HO30823   8.695   3.330   6.111 -4.7579  2.0247 -0.0002
17741THY    CA130824   8.822   3.197   6.061  0.3628  0.7435 -0.4304
17741THY    CA230825   8.917   3.121   6.134  0.1472  0.5329  0.3612
17741THY    CP130826   8.865   3.047   6.265  0.1398 -0.1285 -0.3622
17741THY    HP130827   8.772   3.089   6.306 -0.4463  0.8415 -2.4870
17741THY    CP230828   8.959   3.072   6.375 -0.2329  0.1231 -0.4678
17741THY    HP230829   9.005   3.171   6.381  0.2313 -2.6069 -0.4242
17741THY    HP330830   9.042   3.001   6.380 -0.1606  3.5688 -0.2754
17741THY    HP430831   8.901   3.056   6.467  0.9591  0.9111 -0.3731
17741THY    CP330832   8.843   2.898   6.257  0.6142 -0.4860 -0.0529
17741THY    HP530833   8.937   2.843   6.244  0.2885 -1.0140 -0.5039
17741THY    HP630834   8.772   2.882   6.174 -0.0931  0.2908 -1.1511
17741THY    HP730835   8.794   2.873   6.352  3.3264  0.9393 -0.2087
17741THY    CA330836   9.036   3.085   6.067 -0.4579  0.6809 -0.2463
17741THY    HA330837   9.100   3.009   6.110 -0.7779 -0.8595 -1.4192
17741THY    CA430838   9.066   3.142   5.939  0.2450 -0.1030 -0.1419
17741THY    HA430839   9.159   3.123   5.888  0.1648 -1.4295  2.5237
17741THY    CA530840   8.976   3.228   5.878  0.5677  0.1300 -0.0813
17741THY    CM130841   8.999   3.276   5.732 -0.4083 -0.5883 -0.2157
17741THY    HM130842   8.938   3.205   5.675 -1.4572 -0.8716  0.8903
17741THY    HM230843   9.103   3.250   5.710 -0.6796 -0.0678 -1.8477
17741THY    HM330844   8.979   3.383   5.724  2.2691 -0.1261  0.3994
17741THY    CA630845   8.854   3.244   5.933 -0.1623  0.0596  0.4224
17741THY    HA630846   8.778   3.289   5.870 -1.1776  0.7467 -0.2861
17742THY      O30847   2.721   5.238   7.467 -0.1337  0.4289 -0.4156
17742THY     HO30848   2.724   5.157   7.413 -0.4749 -0.9114  0.4411
17742THY    CA130849   2.853   5.268   7.492  0.2455 -1.0062  0.1788
17742THY    CA230850   2.911   5.398   7.468 -0.2622  0.6065  0.2985
17742THY    CP130851   2.820   5.516   7.413  0.7570 -0.1471  0.4575
17742THY    HP130852   2.713   5.493   7.408  0.4897  1.4927  1.1933
17742THY    CP230853   2.876   5.571   7.271  0.1271  0.0515 -0.6907
17742THY    HP230854   2.888   5.488   7.200 -2.0617 -1.5756  0.2938
17742THY    HP330855   2.974   5.615   7.291 -0.5605  2.1520 -0.0040
17742THY    HP430856   2.814   5.643   7.215 -0.2362  3.1936  1.6415
17742THY    CP330857   2.831   5.633   7.512  1.3790  0.1818 -0.2614
17742THY    HP530858   2.936   5.653   7.539  1.5485 -0.0730 -0.7770
17742THY    HP630859   2.774   5.613   7.604  0.4103 -0.6698 -1.5666
17742THY    HP730860   2.784   5.718   7.462 -0.1411 -1.6092 -2.0629
17742THY    CA330861   3.054   5.409   7.485  0.3351  0.2902 -0.0567
17742THY    HA330862   3.099   5.504   7.457 -0.5643 -2.3019 -0.3158
17742THY    CA430863   3.126   5.309   7.532  0.8511  1.4718 -0.1944
17742THY    HA430864   3.235   5.313   7.530  0.8140 -0.2816  0.9909
17742THY    CA530865   3.067   5.184   7.549 -0.2368 -0.1618 -0.1072
17742THY    CM130866   3.158   5.068   7.579  0.4623 -0.3252  0.5955
17742THY    HM130867   3.264   5.076   7.554  0.5153 -0.2590  0.1556
17742THY    HM230868   3.116   4.975   7.538  0.4604 -0.0229  0.4612
17742THY    HM330869   3.154   5.053   7.688  1.3176 -0.4549 -0.7393
17742THY    CA630870   2.930   5.161   7.533  0.9182 -0.2318  0.3686
17742THY    HA630871   2.876   5.068   7.546 -1.0315  0.2799  1.4973
17743THY      O30872   7.096   1.129   2.516  0.2853 -0.2029  0.2410
17743THY     HO30873   7.181   1.134   2.562  0.7109 -1.0646  2.2389
17743THY    CA130874   7.078   1.007   2.467  0.1702 -0.4351  0.2238
17743THY    CA230875   6.947   0.952   2.459 -0.3262  0.3175  0.1698
17743THY    CP130876   6.824   1.041   2.495  0.8159  0.0477 -0.2530
17743THY    HP130877   6.840   1.149   2.500  0.6181 -1.6265 -0.1307
17743THY    CP230878   6.779   0.993   2.623  0.7579 -0.2666  0.2864
17743THY    HP230879   6.851   1.026   2.698  2.9807 -2.4339  0.6966
17743THY    HP330880   6.768   0.885   2.631  0.6930 -0.0867  0.3068
17743THY    HP430881   6.679   1.032   2.647 -0.0672 -0.6417 -1.5264
17743THY    CP330882   6.711   1.012   2.392  0.4534 -0.5790 -0.0589
17743THY    HP530883   6.754   1.033   2.293 -1.8376 -1.4019  1.1902
17743THY    HP630884   6.627   1.080   2.411 -0.0487 -1.0984 -0.5254
17743THY    HP730885   6.666   0.912   2.386 -0.8264 -3.2783  0.5751
17743THY    CA330886   6.936   0.823   2.398  0.5733  0.3517 -0.1962
17743THY    HA330887   6.840   0.774   2.388  0.7480 -0.4487 -0.3855
17743THY    CA430888   7.048   0.749   2.371 -0.4679 -0.3059  0.1497
17743THY    HA430889   7.036   0.644   2.346  1.2019  1.7185 -0.5936
17743THY    CA530890   7.173   0.803   2.378 -0.4681 -0.6775 -0.3201
17743THY    CM130891   7.294   0.724   2.327 -0.6002 -0.4169 -0.1004
17743THY    HM130892   7.279   0.673   2.231  0.2008  0.4593 -2.0633
17743THY    HM230893   7.322   0.648   2.400  0.2108 -0.6731 -0.0634
17743THY    HM330894   7.378   0.792   2.308 -2.3750 -3.0224  1.5815
17743THY    CA630895   7.190   0.931   2.426 -0.2608 -0.1549 -0.5644
17743THY    HA630896   7.291   0.971   2.430  0.2043  0.8661 -1.7796
17744THY      O30897   3.046   3.267   2.391 -0.6284  0.6364 -0.1406
17744THY     HO30898   3.073   3.334   2.326  0.2964  1.4744  0.3301
17744THY    CA130899   3.015   3.152   2.316 -0.2521 -0.2483 -0.2726
17744THY    CA230900   2.957   3.044   2.375 -0.6789 -0.0120  0.6886
17744THY    CP130901   2.926   3.036   2.519 -0.4650  0.4092  0.1606
17744THY    HP130902   2.963   3.123   2.574  2.4196  0.5533 -1.0640
17744THY    CP230903   2.994   2.910   2.590  0.1693  0.1833 -1.5861
17744THY    HP230904   2.947   2.876   2.683  1.2636  1.2653 -0.2834
17744THY    HP330905   3.102   2.918   2.607 -0.2598  2.3474  1.1572
17744THY    HP430906   2.974   2.821   2.529 -2.0712  1.0732 -1.7724
17744THY    CP330907   2.778   3.034   2.543  0.4379  0.3732  0.7146
17744THY    HP530908   2.764   3.058   2.650  0.2407  0.2499  1.1644
17744THY    HP630909   2.729   2.937   2.528 -0.1502  0.8516  0.9275
17744THY    HP730910   2.728   3.108   2.479 -0.4695 -0.2353 -0.3854
17744THY    CA330911   2.915   2.937   2.299 -0.5180 -0.1599  0.3059
17744THY    HA330912   2.860   2.853   2.341 -1.6160  0.0304  1.0943
17744THY    CA430913   2.946   2.928   2.165 -0.2107  0.0965  0.7272
17744THY    HA430914   2.925   2.839   2.107  0.4170 -0.8442  1.1770
17744THY    CA530915   3.016   3.033   2.106 -0.5279  0.1679 -1.2650
17744THY    CM130916   3.055   3.024   1.957  0.4530  0.0615  0.3113
17744THY    HM130917   2.997   2.948   1.905 -0.5967 -0.2013  1.2782
17744THY    HM230918   3.158   2.987   1.958  0.4507 -0.1508  0.2985
17744THY    HM330919   3.056   3.115   1.896 -0.2611 -0.2808  0.0915
17744THY    CA630920   3.047   3.152   2.181  0.1454  0.1058 -0.5233
17744THY    HA630921   3.087   3.236   2.126  2.1422  1.5401 -0.4373
17745THY      O30922   2.153   4.605   3.154 -0.1839 -0.2248  0.5244
17745THY     HO30923   2.094   4.527   3.149  0.3571  0.0084  0.0968
17745THY    CA130924   2.084   4.699   3.081 -0.2028  0.3584  0.6552
17745THY    CA230925   2.153   4.789   3.000  0.7397 -0.2000  0.1653
17745THY    CP130926   2.312   4.801   2.996 -0.3761 -0.4521  0.5178
17745THY    HP130927   2.351   4.698   2.992  0.0901  1.7876  0.5518
17745THY    CP230928   2.368   4.875   3.124  0.3161  0.3301  0.4035
17745THY    HP230929   2.315   4.970   3.114 -0.0805  0.0838  0.1623
17745THY    HP330930   2.477   4.883   3.123  0.4663 -1.1273 -1.2041
17745THY    HP430931   2.348   4.811   3.210  1.1962  1.2245  1.3030
17745THY    CP330932   2.363   4.864   2.875 -0.2982  0.2257  0.4546
17745THY    HP530933   2.339   4.969   2.855 -0.1372 -0.1446  0.4212
17745THY    HP630934   2.344   4.814   2.780 -0.2823 -0.3905  1.5753
17745THY    HP730935   2.472   4.862   2.883 -0.3406  0.7420 -0.8065
17745THY    CA330936   2.071   4.880   2.927 -0.2954  0.1723 -0.9443
17745THY    HA330937   2.117   4.960   2.869  0.1593  1.2021 -0.4394
17745THY    CA430938   1.929   4.874   2.938  0.4178 -0.2247  0.5492
17745THY    HA430939   1.868   4.940   2.876  0.3819  0.9377  1.6402
17745THY    CA530940   1.873   4.772   3.015 -0.4988  0.1563 -0.1896
17745THY    CM130941   1.729   4.753   3.017  0.4229  0.2894 -0.2411
17745THY    HM130942   1.705   4.713   2.918  0.7168  0.9249 -2.1165
17745THY    HM230943   1.673   4.847   3.025  0.3189 -1.3064 -0.1361
17745THY    HM330944   1.699   4.684   3.096  1.0964 -0.6906 -1.7159
17745THY    CA630945   1.950   4.685   3.086 -0.4206 -0.3752 -0.5291
17745THY    HA630946   1.912   4.614   3.160 -0.6814 -0.0168 -0.0276
17746THY      O30947   6.177   5.615   4.602 -0.2107 -0.0401  0.2686
17746THY     HO30948   6.248   5.617   4.535 -0.1073  0.0461 -0.3453
17746THY    CA130949   6.058   5.599   4.543  0.1247 -0.1635 -0.3846
17746THY    CA230950   5.943   5.648   4.597 -0.0238 -0.3019  0.0208
17746THY    CP130951   5.940   5.726   4.727 -0.0000 -0.4933 -0.1005
17746THY    HP130952   6.039   5.722   4.774  0.7870 -2.0665 -0.2693
17746THY    CP230953   5.854   5.672   4.845  0.5582  1.0027  0.5052
17746THY    HP230954   5.879   5.565   4.855  0.9747 -3.2618  0.0222
17746THY    HP330955   5.749   5.694   4.823  0.8363 -0.9075  0.1027
17746THY    HP430956   5.883   5.723   4.937  1.2089  0.9150  0.3166
17746THY    CP330957   5.894   5.870   4.696  0.7328 -0.4204  0.5558
17746THY    HP530958   5.876   5.936   4.782  0.8314 -0.2744  0.3914
17746THY    HP630959   5.802   5.871   4.637 -1.0602  2.1656 -0.2796
17746THY    HP730960   5.974   5.917   4.637 -0.0846 -0.6977  1.6286
17746THY    CA330961   5.820   5.618   4.534  0.3341  0.1872 -0.3487
17746THY    HA330962   5.729   5.657   4.579  0.1199 -1.1537  0.7816
17746THY    CA430963   5.829   5.551   4.406 -0.0949 -0.6311  0.1600
17746THY    HA430964   5.739   5.521   4.353 -0.6491  1.4947 -2.3014
17746THY    CA530965   5.950   5.512   4.349 -0.1499  0.5673 -0.9220
17746THY    CM130966   5.955   5.453   4.210 -0.2468 -0.0607 -1.2296
17746THY    HM130967   5.919   5.533   4.144 -0.0221  0.0457 -1.0378
17746THY    HM230968   5.887   5.368   4.198 -1.1612  3.1238 -1.1020
17746THY    HM330969   6.053   5.413   4.181  1.4574 -0.0759  2.4814
17746THY    CA630970   6.068   5.540   4.418  0.2690 -0.6932 -0.1560
17746THY    HA630971   6.165   5.512   4.378  1.7539  1.3096  1.8135
17747THY      O30972   1.988   3.531   6.752  0.2233 -0.0876  0.2225
17747THY     HO30973   1.911   3.481   6.782 -0.4080 -1.4316  0.3294
17747THY    CA130974   1.984   3.640   6.838 -0.1251 -0.3617 -0.1014
17747THY    CA230975   2.069   3.746   6.817 -0.6207 -0.0734 -0.2950
17747THY    CP130976   2.170   3.742   6.702 -0.0239 -0.7484  0.2790
17747THY    HP130977   2.203   3.638   6.698 -0.1761  0.3422  0.1843
17747THY    CP230978   2.304   3.819   6.723 -1.8099 -0.0714 -0.0218
17747THY    HP230979   2.385   3.747   6.706 -2.6108 -0.1784 -0.9294
17747THY    HP330980   2.317   3.848   6.828 -0.2475 -0.0481 -0.6935
17747THY    HP430981   2.315   3.911   6.664 -0.8839  1.6598  1.0210
17747THY    CP330982   2.105   3.767   6.562  0.0727 -0.0162 -0.5879
17747THY    HP530983   2.183   3.765   6.484 -0.5474 -0.6552 -0.1946
17747THY    HP630984   2.049   3.861   6.556  1.1846 -0.2110  0.0800
17747THY    HP730985   2.034   3.687   6.538 -0.9044 -0.7202  0.4597
17747THY    CA330986   2.061   3.857   6.901 -0.6060  0.6048 -0.0380
17747THY    HA330987   2.131   3.940   6.893 -1.8675 -1.2760  0.9018
17747THY    CA430988   1.967   3.857   7.007 -0.6508 -0.7368  0.2277
17747THY    HA430989   1.966   3.934   7.084  1.5856  1.5470 -1.8556
17747THY    CA530990   1.881   3.748   7.021 -0.4281  0.3754 -0.1671
17747THY    CM130991   1.775   3.756   7.134 -0.6499 -0.1703  0.0574
17747THY    HM130992   1.822   3.781   7.229  0.4567 -0.8523  0.6492
17747THY    HM230993   1.735   3.655   7.149  1.3205  0.3213 -0.7052
17747THY    HM330994   1.693   3.827   7.120 -0.2174  1.4910  0.9323
17747THY    CA630995   1.886   3.638   6.934  0.2929 -0.2335 -0.2479
17747THY    HA630996   1.817   3.556   6.952  1.2597  0.8349 -0.8650
17748THY      O30997   8.084   1.602   3.658 -0.0883 -0.0390 -0.5878
17748THY     HO30998   8.012   1.546   3.625  0.0299  0.9932 -1.3749
17748THY    CA130999   8.148   1.665   3.559 -0.6036  0.2450 -0.2648
17748THY    CA231000   8.174   1.802   3.563 -0.3008 -0.2878 -1.4276
17748THY    CP131001   8.119   1.880   3.691  0.1064  0.1257  0.1982
17748THY    HP131002   8.023   1.842   3.728 -0.4763  1.6117  2.8335
17748THY    CP231003   8.104   2.032   3.668 -0.3260 -0.2481  0.1188
17748THY    HP231004   8.045   2.078   3.748 -0.6130 -1.8121  2.6135
17748THY    HP331005   8.067   2.057   3.568 -1.6780  0.3038  0.4092
17748THY    HP431006   8.203   2.081   3.667 -0.8514 -0.4417  1.1969
17748THY    CP331007   8.219   1.855   3.802 -0.0273  0.2743  0.1317
17748THY    HP531008   8.231   1.749   3.827 -0.4267 -1.1108 -0.2582
17748THY    HP631009   8.193   1.899   3.899 -1.3469  0.0907 -0.1756
17748THY    HP731010   8.314   1.905   3.780 -1.1611 -2.0567  1.4526
17748THY    CA331011   8.256   1.860   3.465  0.3464 -0.5375  0.1061
17748THY    HA331012   8.281   1.966   3.466 -0.1476  0.8512  0.2365
17748THY    CA431013   8.314   1.778   3.367 -0.6209 -0.7967 -0.0007
17748THY    HA431014   8.391   1.820   3.303  0.2547 -0.4263 -0.9888
17748THY    CA531015   8.288   1.642   3.366  0.1297 -0.0899  0.5066
17748THY    CM131016   8.364   1.549   3.272 -0.0712 -0.3391  0.2270
17748THY    HM131017   8.319   1.449   3.264  0.7529 -0.5898 -0.1278
17748THY    HM231018   8.471   1.554   3.293 -0.2751  0.9499 -0.3159
17748THY    HM331019   8.371   1.574   3.166  3.2453 -0.9626 -2.6808
17748THY    CA631020   8.213   1.583   3.466  0.8135  0.1673 -0.3027
17748THY    HA631021   8.213   1.475   3.476  0.1300 -2.4373 -0.6226
17749THY      O31022   2.589   7.231   3.478 -0.0776  0.2336 -0.2113
17749THY     HO31023   2.561   7.276   3.560 -1.8543  0.3834 -1.4690
17749THY    CA131024   2.621   7.106   3.519  0.6899  0.1377  0.2299
17749THY    CA231025   2.527   7.010   3.576 -0.6431 -0.6441 -0.6521
17749THY    CP131026   2.388   7.056   3.632  0.2738 -0.1693  0.7343
17749THY    HP131027   2.337   7.123   3.562 -3.4301  0.8575 -0.7850
17749THY    CP231028   2.412   7.118   3.764 -0.0131 -0.5529 -0.1931
17749THY    HP231029   2.318   7.158   3.804  0.2498  0.6108 -0.6880
17749THY    HP331030   2.494   7.190   3.764  0.4124  0.3112 -0.6580
17749THY    HP431031   2.437   7.045   3.841 -1.9109  0.1401 -0.1825
17749THY    CP331032   2.283   6.942   3.649  0.4199 -0.3086 -0.3845
17749THY    HP531033   2.298   6.900   3.750 -0.1569  0.0779  0.3260
17749THY    HP631034   2.291   6.865   3.571 -0.2879 -0.9835  0.2176
17749THY    HP731035   2.186   6.990   3.635  0.8079 -2.1436 -0.0831
17749THY    CA331036   2.573   6.880   3.593  0.0752  0.3050 -0.3964
17749THY    HA331037   2.519   6.809   3.655 -0.5355 -0.9040 -1.0172
17749THY    CA431038   2.701   6.843   3.549  0.2577 -0.1383  0.3599
17749THY    HA431039   2.748   6.748   3.572  1.2481  0.3199  0.9365
17749THY    CA531040   2.787   6.930   3.489  0.4291  0.4375 -0.7666
17749THY    CM131041   2.926   6.883   3.438 -0.3592 -0.1947  0.4951
17749THY    HM131042   2.938   6.849   3.335 -0.0732  0.1559 -0.4950
17749THY    HM231043   2.966   6.797   3.493  0.2213 -1.9162 -0.3935
17749THY    HM331044   2.996   6.966   3.451  0.2944 -0.2646 -0.0310
17749THY    CA631045   2.748   7.067   3.473  0.8567  0.3364 -0.4544
17749THY    HA631046   2.817   7.139   3.431 -0.6707 -0.0460  0.8250
17750THY      O31047   6.015   8.223   6.103  0.0420  0.3197 -0.1342
17750THY     HO31048   6.037   8.133   6.132 -1.4845 -1.0776 -1.0228
17750THY    CA131049   6.049   8.303   6.200  0.0541 -0.3996  0.1270
17750THY    CA231050   5.983   8.427   6.225 -0.3442 -0.2775 -0.2225
17750THY    CP131051   5.859   8.461   6.143 -0.2298  0.5222 -0.2237
17750THY    HP131052   5.875   8.415   6.044 -0.9172  0.0232  0.5785
17750THY    CP231053   5.850   8.608   6.133 -0.2639  0.2471 -0.5796
17750THY    HP231054   5.948   8.640   6.094  1.5059  1.6914 -3.7614
17750THY    HP331055   5.826   8.670   6.220  0.7962 -0.7169  1.2525
17750THY    HP431056   5.774   8.640   6.061  0.9669 -0.4785  0.8375
17750THY    CP331057   5.735   8.403   6.209  0.1010 -0.0082 -0.2565
17750THY    HP531058   5.637   8.440   6.174 -0.1396 -2.7301 -3.1148
17750THY    HP631059   5.744   8.420   6.317  0.9681  0.2743 -2.3288
17750THY    HP731060   5.729   8.294   6.204 -2.4847  1.4703 -0.2721
17750THY    CA331061   6.036   8.506   6.330 -0.5677 -0.2396 -0.4583
17750THY    HA331062   5.991   8.602   6.353 -1.2790 -0.1404 -0.8043
17750THY    CA431063   6.151   8.467   6.406  0.7258  0.3029  0.2619
17750THY    HA431064   6.200   8.529   6.479 -2.3092  1.5613  1.3660
17750THY    CA531065   6.198   8.338   6.387  0.0590  0.5740 -0.0371
17750THY    CM131066   6.305   8.284   6.468  0.1989  0.1085  0.1615
17750THY    HM131067   6.356   8.366   6.520  0.3777  1.2563 -0.6484
17750THY    HM231068   6.388   8.250   6.405  1.1542  1.4669 -0.0861
17750THY    HM331069   6.283   8.211   6.547 -0.8638 -0.0391  0.3142
17750THY    CA631070   6.154   8.258   6.273 -0.6912  0.5341 -0.1491
17750THY    HA631071   6.195   8.158   6.257  0.0749  1.3459  0.0185
17751THY      O31072   5.530   6.007   6.116 -0.2458 -0.1806  0.4137
17751THY     HO31073   5.473   5.956   6.055  1.4248 -0.1366 -1.6579
17751THY    CA131074   5.506   5.960   6.237 -0.3454  0.3462  0.4277
17751THY    CA231075   5.582   6.003   6.351  0.3323 -0.2000 -0.8710
17751THY    CP131076   5.697   6.104   6.342  0.0997 -0.8479 -0.8466
17751THY    HP131077   5.699   6.152   6.243  0.8867 -1.5121 -2.1832
17751THY    CP231078   5.825   6.025   6.353  0.3507 -0.4960  1.0938
17751THY    HP231079   5.844   5.966   6.263 -0.2323 -0.4942  0.8926
17751THY    HP331080   5.819   5.944   6.428 -2.7451 -0.1191  1.5334
17751THY    HP431081   5.916   6.081   6.378  2.1884 -0.6294 -1.6149
17751THY    CP331082   5.695   6.208   6.454 -0.0850  0.0156 -1.0945
17751THY    HP531083   5.779   6.279   6.453  0.3473 -0.6973 -1.5964
17751THY    HP631084   5.687   6.165   6.554  0.0626 -0.4991 -2.3736
17751THY    HP731085   5.607   6.268   6.428  0.6430 -0.2412 -0.1080
17751THY    CA331086   5.556   5.936   6.473  0.0626  0.3823  0.1490
17751THY    HA331087   5.611   5.959   6.563 -1.7340  1.6741 -0.4011
17751THY    CA431088   5.461   5.839   6.486  0.4664 -0.6197  0.2730
17751THY    HA431089   5.446   5.787   6.580 -1.7067 -0.6995  0.6745
17751THY    CA531090   5.378   5.807   6.380  0.7716  0.5576 -0.2949
17751THY    CM131091   5.265   5.710   6.383 -0.1444 -0.1607  0.4527
17751THY    HM131092   5.222   5.695   6.483 -0.2699 -0.3411 -0.4874
17751THY    HM231093   5.307   5.611   6.362  0.1599 -0.3815  0.6294
17751THY    HM331094   5.177   5.723   6.318  0.1239 -0.7305 -0.4685
17751THY    CA631095   5.402   5.872   6.254  0.0985  0.1631  0.1764
17751THY    HA631096   5.338   5.855   6.168  0.7144 -0.5324  1.2362
17752THY      O31097   5.438   0.731   5.265  0.2111  0.5138 -0.0203
17752THY     HO31098   5.510   0.687   5.216  0.8548  1.2060  0.2368
17752THY    CA131099   5.482   0.861   5.287  0.2177  0.6442 -0.2343
17752THY    CA231100   5.402   0.956   5.365  0.2229  0.4525  0.0355
17752THY    CP131101   5.280   0.905   5.441  0.1773 -1.3081 -0.0297
17752THY    HP131102   5.240   0.810   5.403  0.7073 -1.5202 -0.1719
17752THY    CP231103   5.158   1.010   5.411 -0.2563 -0.7494  0.2242
17752THY    HP231104   5.167   1.099   5.475  0.9982 -0.0008 -0.4141
17752THY    HP331105   5.066   0.965   5.450  0.5297  1.9750  0.7823
17752THY    HP431106   5.140   1.024   5.304  1.9852 -0.9789  1.8576
17752THY    CP331107   5.297   0.891   5.591 -0.0545 -0.3824 -0.2998
17752THY    HP531108   5.357   0.803   5.615 -0.4558  2.8507  0.1825
17752THY    HP631109   5.203   0.873   5.645  1.2047  1.6784 -1.0092
17752THY    HP731110   5.349   0.975   5.638  1.8235 -1.1279 -0.9920
17752THY    CA331111   5.461   1.078   5.390 -0.2958  0.0920 -0.6916
17752THY    HA331112   5.412   1.146   5.460 -0.2567 -0.0965 -0.4670
17752THY    CA431113   5.587   1.111   5.335 -0.1732 -0.5880 -0.5130
17752THY    HA431114   5.633   1.205   5.363 -0.3899  1.1713 -0.8912
17752THY    CA531115   5.653   1.019   5.253  0.4557  0.0031 -0.5519
17752THY    CM131116   5.795   1.052   5.210  0.2795 -0.2230  0.3643
17752THY    HM131117   5.795   1.160   5.191  0.8269 -0.2481  0.3618
17752THY    HM231118   5.835   0.996   5.125 -1.6872  0.0448 -1.6434
17752THY    HM331119   5.862   1.026   5.293  0.1072 -0.6449 -1.6186
17752THY    CA631120   5.595   0.895   5.224  0.0899 -0.0119 -0.9259
17752THY    HA631121   5.657   0.825   5.167  2.1778 -0.4844  1.1634
17753THY      O31122   5.347   4.858   7.224  0.6845  0.0223  0.0582
17753THY     HO31123   5.430   4.832   7.180 -0.0165 -1.6746  0.5977
17753THY    CA131124   5.315   4.750   7.307 -0.0835  0.3128  0.6282
17753THY    CA231125   5.416   4.664   7.364  0.2295  0.4385  0.3880
17753THY    CP131126   5.566   4.696   7.346  0.1982 -0.4344  0.2218
17753THY    HP131127   5.570   4.739   7.245  0.2575  0.4896  2.4905
17753THY    CP231128   5.668   4.584   7.369  0.0539 -0.6870 -0.1652
17753THY    HP231129   5.632   4.496   7.314 -1.3999  0.2089 -0.1606
17753THY    HP331130   5.678   4.548   7.472  0.6465 -1.5284 -2.6161
17753THY    HP431131   5.770   4.611   7.339  0.9926  1.7782 -0.7154
17753THY    CP331132   5.612   4.800   7.447 -0.0343 -0.2551  0.2903
17753THY    HP531133   5.721   4.812   7.446  0.2008  0.8036 -1.4533
17753THY    HP631134   5.575   4.765   7.545 -0.5378 -0.9159 -1.0949
17753THY    HP731135   5.558   4.890   7.416 -1.8237 -2.1811 -1.3429
17753THY    CA331136   5.376   4.558   7.447 -0.0261  0.5063 -0.5045
17753THY    HA331137   5.447   4.511   7.514  1.5166 -1.3387 -0.9108
17753THY    CA431138   5.241   4.538   7.476 -0.0505  0.0910 -0.3792
17753THY    HA431139   5.207   4.466   7.550  1.6396  1.3591  0.0605
17753THY    CA531140   5.145   4.609   7.418 -0.1445  0.5814 -0.2248
17753THY    CM131141   4.998   4.594   7.443  0.0609 -0.2017 -0.5028
17753THY    HM131142   4.973   4.556   7.543 -1.2432 -0.6157 -0.8112
17753THY    HM231143   4.956   4.526   7.368  2.5375 -1.8649 -0.3205
17753THY    HM331144   4.946   4.690   7.430  0.7218 -1.3465 -0.2840
17753THY    CA631145   5.180   4.714   7.335 -0.4760 -0.3027  0.1943
17753THY    HA631146   5.103   4.777   7.291  0.3375  0.9012  2.1141
17754THY      O31147   3.408   1.357   4.847  0.3088  0.3569 -0.4639
17754THY     HO31148   3.380   1.290   4.783 -0.7861  1.7667 -1.3917
17754THY    CA131149   3.512   1.425   4.789  0.0757 -0.1671  0.4092
17754THY    CA231150   3.598   1.506   4.869  0.5448  0.5611 -0.1810
17754THY    CP131151   3.554   1.533   5.009  0.4819  0.3124  0.3401
17754THY    HP131152   3.476   1.462   5.038 -1.4503  0.8593  2.5573
17754THY    CP231153   3.471   1.669   5.000 -0.0264 -0.1763 -0.7005
17754THY    HP231154   3.388   1.656   4.930  0.6009 -1.1654  0.4287
17754THY    HP331155   3.538   1.749   4.968  0.1601 -2.9774 -1.8604
17754THY    HP431156   3.433   1.686   5.101  2.0625  0.7566 -1.3392
17754THY    CP331157   3.668   1.540   5.110  0.2883 -0.3937 -0.3679
17754THY    HP531158   3.730   1.629   5.092  1.1440 -1.1043 -1.0968
17754THY    HP631159   3.739   1.460   5.088  1.7256 -2.7753  1.4038
17754THY    HP731160   3.632   1.540   5.213 -0.0954 -0.5282 -0.8581
17754THY    CA331161   3.713   1.567   4.811 -0.6472 -0.2876  0.0398
17754THY    HA331162   3.773   1.634   4.872  0.1516 -1.5353  0.4837
17754THY    CA431163   3.725   1.552   4.674  0.8564 -0.3037  0.4954
17754THY    HA431164   3.812   1.604   4.634  0.6845  1.0204  1.8637
17754THY    CA531165   3.653   1.456   4.598  0.3975  0.0766  0.5019
17754THY    CM131166   3.707   1.406   4.469 -0.4643  0.1890  0.8006
17754THY    HM131167   3.795   1.466   4.441  1.0206  2.1130 -0.3570
17754THY    HM231168   3.635   1.389   4.389  1.0070 -0.4103 -4.4551
17754THY    HM331169   3.754   1.307   4.477  1.3755 -1.3142  1.4976
17754THY    CA631170   3.544   1.396   4.661  0.1032  0.5045 -0.5304
17754THY    HA631171   3.490   1.321   4.604  1.0723 -1.3677  0.1207
17755THY      O31172   3.656   8.564   5.902  0.6002 -0.5961  0.2166
17755THY     HO31173   3.647   8.602   5.991 -0.7782 -1.1208  1.1851
17755THY    CA131174   3.529   8.541   5.863  1.1439 -0.1340 -0.0477
17755THY    CA231175   3.494   8.520   5.722  0.1346 -1.1293 -0.3325
17755THY    CP131176   3.595   8.558   5.622 -0.2927 -0.4887  0.6351
17755THY    HP131177   3.692   8.559   5.671 -1.5161  2.1648 -0.4787
17755THY    CP231178   3.565   8.691   5.562 -0.7418  0.8690 -0.3992
17755THY    HP231179   3.463   8.711   5.527 -0.9153  0.5609 -1.7319
17755THY    HP331180   3.635   8.721   5.483 -1.5610  0.4724  0.5246
17755THY    HP431181   3.574   8.764   5.643 -0.5016 -1.2475  2.0462
17755THY    CP331182   3.607   8.452   5.505 -0.0046 -0.2229 -0.3148
17755THY    HP531183   3.700   8.466   5.448  0.0796  0.3291  1.7950
17755THY    HP631184   3.526   8.459   5.432 -2.3028  2.0946 -1.1049
17755THY    HP731185   3.613   8.352   5.548  1.7043  2.2877  0.7421
17755THY    CA331186   3.365   8.475   5.701  0.5191 -0.3307 -0.8658
17755THY    HA331187   3.320   8.473   5.602 -1.1763  0.3719  0.0622
17755THY    CA431188   3.284   8.449   5.811 -0.3765 -0.9180 -0.5433
17755THY    HA431189   3.182   8.428   5.781  0.0196 -1.7705 -1.3007
17755THY    CA531190   3.324   8.470   5.945 -0.4554 -0.8094  0.0648
17755THY    CM131191   3.223   8.457   6.054  0.1033  0.1153 -0.3930
17755THY    HM131192   3.167   8.551   6.057  0.4984  2.0660 -0.1814
17755THY    HM231193   3.265   8.444   6.155  0.1623  0.2088  0.4932
17755THY    HM331194   3.158   8.371   6.034  0.3052 -2.6137  0.0068
17755THY    CA631195   3.443   8.521   5.974  0.6142 -0.1439  0.3069
17755THY    HA631196   3.465   8.541   6.079 -1.8158  0.5070 -0.0548
17756THY      O31197   6.392   7.491   2.392 -0.1616 -0.2606  0.8182
17756THY     HO31198   6.464   7.538   2.438 -0.9176  2.7253 -0.7326
17756THY    CA131199   6.449   7.385   2.331 -0.7335 -0.1879 -0.3056
17756THY    CA231200   6.411   7.331   2.209  0.0059  0.3522  0.0708
17756THY    CP131201   6.309   7.394   2.118  0.3650 -0.0966 -0.2093
17756THY    HP131202   6.256   7.476   2.169 -0.6820  0.8655 -1.4505
17756THY    CP231203   6.198   7.304   2.061 -0.3976  0.2002 -0.6415
17756THY    HP231204   6.234   7.241   1.979  1.0821  0.4618 -0.1659
17756THY    HP331205   6.123   7.375   2.025 -0.1865  0.6378 -0.1902
17756THY    HP431206   6.153   7.252   2.146 -0.3441  0.9197  0.4601
17756THY    CP331207   6.392   7.458   2.002  0.1402 -0.2219  0.6475
17756THY    HP531208   6.458   7.387   1.951  1.5404  0.4910  1.3808
17756THY    HP631209   6.453   7.532   2.055  0.9164 -0.0472 -0.1057
17756THY    HP731210   6.318   7.503   1.935  0.6024  0.2058  2.1062
17756THY    CA331211   6.477   7.216   2.156  0.4200 -0.0456 -0.4471
17756THY    HA331212   6.447   7.174   2.060  3.5285 -2.1461  1.6521
17756THY    CA431213   6.587   7.163   2.223 -0.1632  0.4345 -0.1683
17756THY    HA431214   6.639   7.074   2.188  0.1756  1.8659 -0.5514
17756THY    CA531215   6.628   7.217   2.350  0.4307 -0.0560  0.3398
17756THY    CM131216   6.742   7.151   2.411  0.1515 -0.3766 -0.5839
17756THY    HM131217   6.740   7.041   2.404 -0.6139 -1.1881 -0.5268
17756THY    HM231218   6.731   7.180   2.516  2.3683  0.0875 -1.1963
17756THY    HM331219   6.833   7.197   2.370  0.7426  1.3412 -0.1550
17756THY    CA631220   6.555   7.328   2.405  0.7949 -0.2405  0.3049
17756THY    HA631221   6.587   7.367   2.501  2.2363 -0.5227 -0.1290
17757THY      O31222   2.185   8.256   2.146 -0.1703 -0.5727 -0.1949
17757THY     HO31223   2.232   8.173   2.163  2.6930 -1.1547  1.1386
17757THY    CA131224   2.167   8.265   2.013  0.5063 -0.3519  1.3969
17757THY    CA231225   2.115   8.150   1.946  0.2899 -1.1099 -0.5945
17757THY    CP131226   2.033   8.049   2.031  0.3553 -0.8456  0.6045
17757THY    HP131227   2.017   8.096   2.128 -1.1706 -0.7154 -0.1106
17757THY    CP231228   2.109   7.919   2.060  0.1679  0.6126 -0.5697
17757THY    HP231229   2.119   7.862   1.966 -0.1408 -1.2154  2.1676
17757THY    HP331230   2.056   7.855   2.131  2.3897  2.1012 -0.8705
17757THY    HP431231   2.209   7.935   2.101 -1.3458  4.4628 -0.0132
17757THY    CP331232   1.897   8.006   1.968 -0.0644 -0.2823  0.4406
17757THY    HP531233   1.843   7.944   2.040 -0.5471 -0.3641  0.7619
17757THY    HP631234   1.921   7.938   1.885 -0.1677  2.5676 -3.3875
17757THY    HP731235   1.834   8.093   1.946 -1.3442  2.9086  0.4294
17757THY    CA331236   2.118   8.150   1.808 -0.7305  0.4000 -0.0598
17757THY    HA331237   2.086   8.066   1.746  1.0368  1.9870 -2.0295
17757THY    CA431238   2.166   8.260   1.736  0.0831  0.2919  0.9209
17757THY    HA431239   2.153   8.251   1.629  1.1055  0.3625 -3.1569
17757THY    CA531240   2.210   8.374   1.806 -0.2286 -0.2127  0.9152
17757THY    CM131241   2.260   8.493   1.730  0.0006 -0.2352 -0.6933
17757THY    HM131242   2.188   8.576   1.743  2.1804  2.1801  0.9573
17757THY    HM231243   2.272   8.468   1.624 -1.4371 -0.2921 -1.2368
17757THY    HM331244   2.358   8.525   1.765 -0.1471  0.0049 -0.5050
17757THY    CA631245   2.212   8.368   1.946  0.9181  0.1398 -0.5311
17757THY    HA631246   2.257   8.453   1.997  0.8411  1.1864 -1.0992
17758THY      O31247   1.979   0.855   3.902 -0.2206  0.0205  0.1222
17758THY     HO31248   1.905   0.814   3.853  0.6725  0.1437 -1.7420
17758THY    CA131249   2.088   0.853   3.815  0.8754 -0.4008 -0.7426
17758THY    CA231250   2.214   0.916   3.841 -0.1737 -0.0261  0.0800
17758THY    CP131251   2.224   1.007   3.967 -0.5600  0.6055 -0.6703
17758THY    HP131252   2.130   1.025   4.020 -0.9179  0.0327 -0.8335
17758THY    CP231253   2.287   1.145   3.933  0.1009  0.3780  0.0519
17758THY    HP231254   2.380   1.130   3.877 -1.4675 -2.5384  0.4905
17758THY    HP331255   2.316   1.202   4.023 -2.2039  0.6696  0.8573
17758THY    HP431256   2.221   1.200   3.865 -1.0902  1.4720  0.0394
17758THY    CP331257   2.321   0.943   4.068 -0.5476  0.2931  0.4799
17758THY    HP531258   2.292   0.840   4.091  0.8289  0.3520  0.0850
17758THY    HP631259   2.317   1.007   4.157  0.9178  0.1591  0.8009
17758THY    HP731260   2.426   0.944   4.036 -0.5092  0.2903 -1.0790
17758THY    CA331261   2.321   0.889   3.751 -0.0359  0.0633  0.1386
17758THY    HA331262   2.418   0.927   3.779  0.3645 -0.9644 -0.0959
17758THY    CA431263   2.297   0.801   3.642 -0.0697  0.3861 -0.2618
17758THY    HA431264   2.389   0.766   3.596  0.6615  2.6430 -1.4935
17758THY    CA531265   2.178   0.728   3.628  0.3123 -0.4189 -0.5716
17758THY    CM131266   2.174   0.613   3.545  0.2699  0.2929  0.4345
17758THY    HM131267   2.212   0.633   3.444 -0.8828  0.1601  2.1955
17758THY    HM231268   2.080   0.559   3.533  0.2062 -0.4611  0.7014
17758THY    HM331269   2.247   0.543   3.586  3.6169  1.5187  4.2490
17758THY    CA631270   2.069   0.760   3.715 -0.0539  0.6629  0.0884
17758THY    HA631271   1.980   0.698   3.713 -0.1207 -0.3740  0.1945
17759THY      O31272   1.668   7.388   5.782 -0.2314 -0.3026 -0.2045
17759THY     HO31273   1.632   7.316   5.836 -2.9208  0.6016  1.6748
17759THY    CA131274   1.558   7.460   5.740 -0.8092 -0.1830  0.4104
17759THY    CA231275   1.578   7.555   5.646  0.2015 -0.3858 -0.2391
17759THY    CP131276   1.710   7.592   5.585  0.0292  0.2985  0.2308
17759THY    HP131277   1.782   7.588   5.668  1.6549 -1.1141 -0.7019
17759THY    CP231278   1.723   7.741   5.531  0.3766 -0.5535  0.7391
17759THY    HP231279   1.652   7.767   5.453 -2.6201  1.8206  0.2498
17759THY    HP331280   1.825   7.764   5.497  0.1386 -0.3133  2.2814
17759THY    HP431281   1.711   7.821   5.605 -0.2060  0.2271 -0.0531
17759THY    CP331282   1.745   7.487   5.478 -0.2483  0.2163  0.6744
17759THY    HP531283   1.790   7.399   5.525  0.5020 -2.2842 -0.3774
17759THY    HP631284   1.821   7.533   5.413  0.2986  0.9178  0.7809
17759THY    HP731285   1.659   7.457   5.418  2.6640 -3.0849 -1.9101
17759THY    CA331286   1.461   7.620   5.594  0.3836  0.1554  0.1352
17759THY    HA331287   1.468   7.687   5.509  0.9463 -0.0821 -0.2120
17759THY    CA431288   1.336   7.600   5.655 -0.5443 -0.7946  0.1969
17759THY    HA431289   1.242   7.647   5.628 -0.2440 -1.5076  0.4063
17759THY    CA531290   1.323   7.518   5.767 -0.0717 -0.0162 -0.0069
17759THY    CM131291   1.189   7.504   5.823  0.3876  0.1994 -0.2059
17759THY    HM131292   1.192   7.455   5.920  0.6419  0.9189  1.1886
17759THY    HM231293   1.124   7.445   5.757  1.0145  1.1404 -1.9947
17759THY    HM331294   1.143   7.603   5.835  0.1967  1.5946 -0.4514
17759THY    CA631295   1.433   7.446   5.801 -0.5655 -0.2302 -0.3949
17759THY    HA631296   1.424   7.364   5.872  1.6568  0.5037 -0.0788
17760THY      O31297   5.413   6.330   2.823  0.5590  0.0785 -0.6004
17760THY     HO31298   5.370   6.382   2.753  1.1852  0.8247  0.9886
17760THY    CA131299   5.445   6.205   2.779 -1.2402  0.8865 -0.4815
17760THY    CA231300   5.558   6.138   2.838 -0.0550 -0.0389  0.1633
17760THY    CP131301   5.640   6.200   2.955  0.0489 -0.1063 -0.9412
17760THY    HP131302   5.582   6.278   3.007  0.6128 -0.5224 -0.2279
17760THY    CP231303   5.773   6.262   2.905  1.2684 -0.4016  0.9095
17760THY    HP231304   5.854   6.190   2.890  0.7090  0.1887  0.1514
17760THY    HP331305   5.811   6.342   2.970  1.2133  0.1563  0.4800
17760THY    HP431306   5.763   6.309   2.806  3.5815 -0.4963  1.3166
17760THY    CP331307   5.667   6.101   3.067 -0.5951  0.2369  0.0096
17760THY    HP531308   5.761   6.047   3.057  0.7321 -0.1844  2.2845
17760THY    HP631309   5.588   6.026   3.081  1.3390 -0.8583 -2.3372
17760THY    HP731310   5.674   6.149   3.166 -1.6414 -0.7296  2.3559
17760THY    CA331311   5.603   6.013   2.788 -0.2651 -0.2545 -0.1161
17760THY    HA331312   5.680   5.949   2.829 -1.0608  0.4488 -0.6409
17760THY    CA431313   5.542   5.977   2.669 -0.9235 -0.6267 -0.2211
17760THY    HA431314   5.577   5.881   2.632  0.6828 -0.1108  0.1347
17760THY    CA531315   5.448   6.054   2.603  0.2043 -0.1775  0.2097
17760THY    CM131316   5.402   6.009   2.470 -0.0619  0.3544 -0.4134
17760THY    HM131317   5.312   5.948   2.478 -0.0154 -1.1491 -0.7189
17760THY    HM231318   5.479   5.952   2.417 -0.8005 -3.3771  1.7549
17760THY    HM331319   5.381   6.094   2.404 -1.3577  0.4534 -0.6446
17760THY    CA631320   5.398   6.168   2.655  0.7279 -0.1019  0.3390
17760THY    HA631321   5.328   6.230   2.600  2.0517 -0.2032  1.8136
17761THY      O31322   0.354   4.979   2.382 -0.0132  0.2672  0.3702
17761THY     HO31323   0.406   5.043   2.434  1.8200  1.0169 -1.6125
17761THY    CA131324   0.426   4.918   2.281 -0.1951  0.4297 -0.3611
17761THY    CA231325   0.368   4.879   2.161  0.7162 -0.6208  0.4862
17761THY    CP131326   0.217   4.911   2.138 -0.1391  0.1266  0.1912
17761THY    HP131327   0.182   5.003   2.187 -1.6925 -1.2401  0.3852
17761THY    CP231328   0.125   4.814   2.199  0.4088 -0.2563  1.2239
17761THY    HP231329   0.148   4.783   2.302 -0.4142  0.2315  2.1790
17761THY    HP331330   0.111   4.728   2.132 -1.1286  0.5364  0.8097
17761THY    HP431331   0.025   4.856   2.214 -0.5911  0.6994 -1.3110
17761THY    CP331332   0.186   4.935   1.993  0.3806 -0.8349  0.4417
17761THY    HP531333   0.176   4.840   1.939  1.1303  0.6608 -0.5236
17761THY    HP631334   0.260   5.000   1.946 -0.3893 -0.5524  1.5456
17761THY    HP731335   0.097   4.997   1.977  1.3764 -1.1601  1.8187
17761THY    CA331336   0.445   4.808   2.069 -0.2823  0.1809  0.9238
17761THY    HA331337   0.403   4.764   1.979 -2.6631  1.3864  0.5574
17761THY    CA431338   0.580   4.779   2.098  0.0510 -0.2546  0.0097
17761THY    HA431339   0.641   4.719   2.031 -0.6232  0.6696 -1.7808
17761THY    CA531340   0.638   4.822   2.217  0.8903  0.3326 -0.3834
17761THY    CM131341   0.781   4.785   2.245  0.3880 -0.5336 -0.2771
17761THY    HM131342   0.792   4.678   2.221 -1.3634  0.1406 -0.6534
17761THY    HM231343   0.808   4.785   2.351  2.1651 -0.9539 -0.8525
17761THY    HM331344   0.854   4.841   2.187 -1.0375 -0.7959  1.3700
17761THY    CA631345   0.563   4.895   2.304 -0.3002 -0.0035  0.0743
17761THY    HA631346   0.617   4.930   2.391  0.1213 -0.7004  1.2124
17762THY      O31347   2.734   8.975   3.004  0.1309 -0.1189  0.3130
17762THY     HO31348   2.664   9.031   3.041 -1.2096 -0.0437 -1.3301
17762THY    CA131349   2.737   8.868   3.077  0.7447 -0.6079  0.3310
17762THY    CA231350   2.764   8.736   3.026  0.1510 -1.1207  0.2086
17762THY    CP131351   2.796   8.713   2.882 -0.0087  0.3474 -0.0666
17762THY    HP131352   2.754   8.797   2.825  0.4767  0.0221 -0.0391
17762THY    CP231353   2.734   8.587   2.831 -0.0611 -0.0995  0.4911
17762THY    HP231354   2.789   8.499   2.865 -0.6085 -1.9115 -0.6148
17762THY    HP331355   2.751   8.593   2.723  1.6686  0.1029 -0.1663
17762THY    HP431356   2.627   8.594   2.855 -0.1213  0.0063 -0.5669
17762THY    CP331357   2.946   8.711   2.864 -0.1595 -0.6318  1.0939
17762THY    HP531358   2.984   8.802   2.912  0.1135  2.0845 -0.3500
17762THY    HP631359   2.968   8.723   2.757 -0.7632 -0.9688 -0.4928
17762THY    HP731360   3.009   8.626   2.892 -2.9657 -0.7017 -1.1579
17762THY    CA331361   2.770   8.630   3.118 -0.8051  0.2215 -0.5101
17762THY    HA331362   2.790   8.529   3.084 -0.7143 -0.9586 -0.1094
17762THY    CA431363   2.776   8.664   3.252 -0.1470 -0.2962  0.2876
17762THY    HA431364   2.805   8.587   3.324  0.3557 -1.8099 -0.9828
17762THY    CA531365   2.740   8.789   3.303 -0.0990 -0.7130 -0.8745
17762THY    CM131366   2.730   8.816   3.454  0.2947 -0.5454  1.0454
17762THY    HM131367   2.828   8.826   3.503  0.6820 -1.0090 -0.1889
17762THY    HM231368   2.667   8.739   3.500 -1.6710 -0.0809  2.8522
17762THY    HM331369   2.687   8.916   3.465 -0.6461  0.6921  0.5212
17762THY    CA631370   2.707   8.884   3.211  0.0696  0.6289  0.4393
17762THY    HA631371   2.667   8.978   3.248 -1.9759 -1.2502  0.4137
17763THY      O31372   7.557   1.937   4.452 -0.0972  0.7467 -0.2282
17763THY     HO31373   7.497   1.927   4.528  1.0877  1.5531 -1.6574
17763THY    CA131374   7.669   1.871   4.477  0.1095 -0.4177 -0.0605
17763THY    CA231375   7.799   1.916   4.451 -0.1850  0.3249  0.4280
17763THY    CP131376   7.815   2.040   4.364  0.6778 -0.0124 -0.2236
17763THY    HP131377   7.739   2.040   4.286  0.1852  0.4319  1.1179
17763THY    CP231378   7.936   2.037   4.284  0.5893 -0.4909 -0.4319
17763THY    HP231379   8.022   2.050   4.351  1.5365 -1.7983  0.2212
17763THY    HP331380   7.928   2.125   4.220 -0.4264  2.4689  1.7962
17763THY    HP431381   7.941   1.946   4.223  1.2266 -2.2847  0.7600
17763THY    CP331382   7.807   2.163   4.451 -0.1173  0.1161 -0.4329
17763THY    HP531383   7.884   2.163   4.529 -1.1221  1.1379  0.3908
17763THY    HP631384   7.706   2.158   4.495 -1.2142 -2.0378  1.0716
17763THY    HP731385   7.806   2.249   4.384  0.4414 -3.1972 -2.8071
17763THY    CA331386   7.907   1.840   4.505  0.2309 -0.6009 -0.5236
17763THY    HA331387   8.009   1.870   4.480  0.4622  2.1151  1.4350
17763THY    CA431388   7.883   1.730   4.588  0.1306 -0.4539  0.4535
17763THY    HA431389   7.968   1.674   4.625 -0.6727  1.8594  0.6633
17763THY    CA531390   7.752   1.689   4.619  0.0771 -0.0291 -0.1291
17763THY    CM131391   7.730   1.577   4.707  0.4452 -1.3146  0.9573
17763THY    HM131392   7.814   1.507   4.704 -0.8527  1.0121 -0.8604
17763THY    HM231393   7.648   1.511   4.675  1.2166 -2.0036  0.3069
17763THY    HM331394   7.707   1.603   4.810  0.4683 -1.1513  0.3568
17763THY    CA631395   7.648   1.757   4.554 -0.2837 -0.3226 -0.0760
17763THY    HA631396   7.551   1.716   4.577  0.6800  2.3276 -1.1389
17764THY      O31397   4.280   1.710   7.583 -0.2127 -0.3278 -0.8455
17764THY     HO31398   4.353   1.763   7.621 -1.0422  1.7025 -1.0438
17764THY    CA131399   4.306   1.730   7.452 -0.2292  0.0794 -0.2007
17764THY    CA231400   4.215   1.779   7.361 -0.0195 -0.4610 -0.4482
17764THY    CP131401   4.079   1.822   7.405  0.5408  0.6140  0.5942
17764THY    HP131402   4.039   1.751   7.478 -1.7650 -0.3188  0.8800
17764THY    CP231403   3.965   1.831   7.296  0.8522  0.4546  0.2046
17764THY    HP231404   3.972   1.903   7.214 -3.2686 -1.1893 -1.0028
17764THY    HP331405   3.872   1.840   7.353 -0.3038 -1.5854  1.9939
17764THY    HP431406   3.953   1.732   7.251  1.1232 -1.0327  0.8294
17764THY    CP331407   4.085   1.948   7.496  0.3364  0.0520 -0.0419
17764THY    HP531408   3.986   1.968   7.538  1.1912  1.9184  0.5775
17764THY    HP631409   4.125   2.023   7.427 -0.6472 -2.0563 -1.3731
17764THY    HP731410   4.154   1.935   7.581 -0.8030  0.8576 -1.0663
17764THY    CA331411   4.260   1.811   7.238 -0.0728  0.0223 -0.6650
17764THY    HA331412   4.188   1.856   7.171  0.2050  1.7083  2.4994
17764THY    CA431413   4.395   1.797   7.201  0.2226  0.5050  0.6415
17764THY    HA431414   4.436   1.830   7.106  1.0100  0.7450  0.3834
17764THY    CA531415   4.483   1.728   7.287  0.5075  0.1309 -0.6497
17764THY    CM131416   4.630   1.700   7.252  0.0149 -0.3051  0.5549
17764THY    HM131417   4.637   1.705   7.143 -1.5604 -0.5260 -1.0373
17764THY    HM231418   4.652   1.596   7.280 -2.9254 -3.6132 -1.1777
17764THY    HM331419   4.702   1.762   7.307  0.7315  0.1131 -0.6082
17764THY    CA631420   4.436   1.695   7.418  0.5951 -0.3735 -1.0558
17764THY    HA631421   4.507   1.657   7.491  2.6777 -1.4535  0.5492
17765THY      O31422   1.498   7.264   3.783  0.3421  0.4977 -0.3782
17765THY     HO31423   1.435   7.270   3.710  1.7037 -0.5720  2.3282
17765THY    CA131424   1.492   7.391   3.838  0.0811 -0.1398 -0.2431
17765THY    CA231425   1.535   7.423   3.970 -0.6890  0.1649 -0.6829
17765THY    CP131426   1.592   7.313   4.051  0.0431  0.5795 -0.1691
17765THY    HP131427   1.548   7.222   4.008 -1.0886 -2.2673  1.5795
17765THY    CP231428   1.542   7.314   4.192 -0.1739  0.2399 -0.3367
17765THY    HP231429   1.433   7.324   4.185  0.1122 -1.4694  3.0871
17765THY    HP331430   1.584   7.402   4.242  0.3645 -2.4342  1.0264
17765THY    HP431431   1.568   7.222   4.245  1.6681  0.1744  0.1051
17765THY    CP331432   1.743   7.315   4.054  0.0463  0.2675 -0.8180
17765THY    HP531433   1.773   7.329   3.950 -0.2214  0.2266 -0.5174
17765THY    HP631434   1.793   7.231   4.103 -0.5941 -0.2773 -1.5320
17765THY    HP731435   1.779   7.407   4.102  0.5842  0.4101 -1.1040
17765THY    CA331436   1.553   7.559   4.003  0.4627  0.1218  0.1754
17765THY    HA331437   1.599   7.591   4.096 -0.8287 -0.1629  3.2008
17765THY    CA431438   1.490   7.660   3.926 -0.5018  0.0200 -0.3370
17765THY    HA431439   1.503   7.763   3.958 -1.0210  1.7683 -0.7755
17765THY    CA531440   1.433   7.620   3.799  0.4943  0.4384 -0.6879
17765THY    CM131441   1.381   7.740   3.715  0.0934  0.1459  0.1984
17765THY    HM131442   1.325   7.708   3.626 -1.5930  0.7794  1.2612
17765THY    HM231443   1.458   7.804   3.672 -0.3166  0.0912  0.6606
17765THY    HM331444   1.318   7.808   3.774 -0.9426  0.1012 -0.6822
17765THY    CA631445   1.428   7.488   3.758  0.0979  0.2553 -0.7184
17765THY    HA631446   1.387   7.461   3.661 -0.3383  0.0471  0.6267
17766THY      O31447   7.319   7.506   4.742 -0.0269  0.3649 -0.0321
17766THY     HO31448   7.355   7.418   4.763 -2.9450  0.6737 -1.2637
17766THY    CA131449   7.423   7.588   4.714 -0.5027  0.1739 -0.1111
17766THY    CA231450   7.412   7.718   4.677 -0.5114 -0.1121 -1.1109
17766THY    CP131451   7.272   7.793   4.672  0.0657 -0.0744  0.1584
17766THY    HP131452   7.199   7.732   4.728  1.5174  0.9585 -0.6970
17766THY    CP231453   7.227   7.823   4.533 -0.9622  0.1175 -0.1460
17766THY    HP231454   7.256   7.744   4.463 -1.1729 -0.3988  0.2323
17766THY    HP331455   7.270   7.916   4.493  2.8916  0.1357 -1.7525
17766THY    HP431456   7.122   7.837   4.505 -0.3337 -2.2924  0.1554
17766THY    CP331457   7.276   7.917   4.767 -0.0421  0.2777  0.3492
17766THY    HP531458   7.320   7.879   4.859  1.4120 -0.6505 -0.2864
17766THY    HP631459   7.177   7.960   4.785 -0.6553  0.4122 -1.0636
17766THY    HP731460   7.334   8.000   4.723 -1.0917 -0.3628  0.7629
17766THY    CA331461   7.532   7.785   4.643 -0.2040 -0.2322 -0.1221
17766THY    HA331462   7.530   7.892   4.626 -1.5898  1.7586  0.2455
17766THY    CA431463   7.649   7.725   4.629 -0.9898  0.2532  0.2628
17766THY    HA431464   7.738   7.777   4.594 -0.4667  0.2015 -0.6254
17766THY    CA531465   7.657   7.585   4.658  0.4642 -0.5557 -0.2350
17766THY    CM131466   7.782   7.507   4.629  0.2722 -0.0102 -0.3034
17766THY    HM131467   7.863   7.576   4.605 -1.1530 -0.6184  1.2218
17766THY    HM231468   7.779   7.444   4.539  2.5104 -0.7091  0.5033
17766THY    HM331469   7.812   7.448   4.717  0.9176  0.5725  0.8691
17766THY    CA631470   7.547   7.524   4.712  0.1210  0.3215  0.5671
17766THY    HA631471   7.552   7.422   4.748 -1.9231 -0.9978 -0.0630
17767THY      O31472   6.761   4.622   6.250 -0.2588  0.7213 -0.2617
17767THY     HO31473   6.734   4.657   6.163 -1.8950  1.3675  0.1793
17767THY    CA131474   6.812   4.499   6.221  0.3088  0.6362 -0.1620
17767THY    CA231475   6.870   4.427   6.323 -0.8146 -0.0762 -0.0834
17767THY    CP131476   6.868   4.469   6.465 -0.0701 -0.9672  0.6418
17767THY    HP131477   6.800   4.553   6.478 -2.2162  1.4960 -1.3179
17767THY    CP231478   7.002   4.528   6.500  0.1234 -0.1558 -0.5855
17767THY    HP231479   7.010   4.563   6.603 -2.2051 -0.3210  0.6467
17767THY    HP331480   7.022   4.623   6.449  1.3279 -0.8418 -1.1873
17767THY    HP431481   7.087   4.458   6.492 -2.5673  0.2489 -4.1979
17767THY    CP331482   6.812   4.365   6.571 -0.3852  0.0113  0.3883
17767THY    HP531483   6.812   4.424   6.663  1.8958  0.5469 -0.3625
17767THY    HP631484   6.860   4.269   6.591 -0.5869  1.2820  0.5459
17767THY    HP731485   6.706   4.344   6.548 -0.5879  1.5152 -0.3620
17767THY    CA331486   6.921   4.298   6.290 -0.1469 -0.1381  0.3925
17767THY    HA331487   6.957   4.225   6.362 -0.6976 -0.6001 -0.3460
17767THY    CA431488   6.909   4.250   6.158 -0.0272  0.2298 -0.3167
17767THY    HA431489   6.946   4.150   6.136  1.1390  1.4097 -0.1832
17767THY    CA531490   6.848   4.325   6.060  0.1147 -0.2582  0.2032
17767THY    CM131491   6.850   4.265   5.921  0.4041  0.2237 -0.1424
17767THY    HM131492   6.944   4.229   5.876 -0.4273 -0.0498 -2.1183
17767THY    HM231493   6.816   4.342   5.850 -2.4916 -2.0738 -3.2152
17767THY    HM331494   6.779   4.182   5.913 -1.1876  0.0216  1.1992
17767THY    CA631495   6.793   4.448   6.091 -0.7475 -0.1979 -0.7936
17767THY    HA631496   6.748   4.508   6.012  1.8265 -0.6393  0.6805
17768THY      O31497   5.832   3.260   2.018 -0.0189 -0.8393 -0.2541
17768THY     HO31498   5.924   3.234   2.000 -0.0016  0.1373 -0.9085
17768THY    CA131499   5.820   3.390   1.979 -0.2290  0.8585  0.2037
17768THY    CA231500   5.701   3.466   1.995  0.4512  1.0197  0.8777
17768THY    CP131501   5.565   3.403   2.055 -0.0365 -0.2342 -0.1421
17768THY    HP131502   5.563   3.294   2.052  2.6153 -1.0752 -0.2322
17768THY    CP231503   5.437   3.445   1.971  0.2247  0.4698 -0.5191
17768THY    HP231504   5.456   3.403   1.872  3.7613  0.2228  1.3529
17768THY    HP331505   5.429   3.553   1.954 -0.5287  0.0111 -0.6381
17768THY    HP431506   5.341   3.416   2.016  0.8772  2.5469  0.3526
17768THY    CP331507   5.544   3.435   2.202 -0.6916  0.0220  0.3619
17768THY    HP531508   5.438   3.428   2.230 -0.8192 -0.5345 -0.0042
17768THY    HP631509   5.580   3.534   2.231  1.7530  1.5947 -0.8827
17768THY    HP731510   5.599   3.368   2.269  2.8683 -0.2682  2.7366
17768THY    CA331511   5.707   3.603   1.986  0.0365  0.4159 -0.1492
17768THY    HA331512   5.618   3.664   1.994 -0.1523 -0.5731 -0.2938
17768THY    CA431513   5.836   3.661   1.967  0.0656  0.0447 -0.5947
17768THY    HA431514   5.838   3.768   1.987 -4.8829  0.9909 -0.4027
17768THY    CA531515   5.948   3.581   1.945 -0.5519  0.5147 -0.0443
17768THY    CM131516   6.076   3.655   1.932 -0.0507  0.2350  0.3690
17768THY    HM131517   6.074   3.704   1.833  3.2860  0.2526  0.7431
17768THY    HM231518   6.166   3.594   1.942 -1.4503  0.1681 -1.7929
17768THY    HM331519   6.086   3.726   2.015  0.2730  0.5479 -0.0412
17768THY    CA631520   5.938   3.443   1.943  0.7231  0.1450  0.2262
17768THY    HA631521   6.024   3.382   1.920  0.7587 -0.2778  0.4322
17769THY      O31522   9.180   4.778   3.202  0.3029 -0.5936 -0.3041
17769THY     HO31523   9.222   4.851   3.153 -3.3446 -0.5509  2.1158
17769THY    CA131524   9.167   4.677   3.112 -0.5000 -0.1069  0.3996
17769THY    CA231525   9.080   4.673   3.000 -0.4031  0.3358  0.1488
17769THY    CP131526   8.999   4.796   2.963 -0.3115 -0.5676 -0.0640
17769THY    HP131527   9.015   4.875   3.037  1.8083 -0.0575 -0.8902
17769THY    CP231528   8.851   4.747   2.950  0.3033  0.1151  0.0410
17769THY    HP231529   8.840   4.671   3.028  1.6229  1.1103  0.8353
17769THY    HP331530   8.825   4.704   2.852 -1.4031 -0.2024  1.6568
17769THY    HP431531   8.780   4.830   2.963 -1.1523 -0.0346 -1.1459
17769THY    CP331532   9.057   4.861   2.828  0.8362 -0.0534  0.6184
17769THY    HP531533   8.994   4.947   2.805 -0.5723 -0.8371 -0.5839
17769THY    HP631534   9.048   4.790   2.745 -2.6483  2.1743 -1.8562
17769THY    HP731535   9.161   4.897   2.838  0.2957 -0.7334  2.4941
17769THY    CA331536   9.081   4.553   2.917  0.2162  0.0939 -0.0545
17769THY    HA331537   9.019   4.540   2.829  0.9455 -0.5786  0.8972
17769THY    CA431538   9.173   4.450   2.948  0.1691  0.3872  0.2264
17769THY    HA431539   9.179   4.355   2.896 -1.8306  0.6859 -0.0987
17769THY    CA531540   9.262   4.457   3.060  1.0775  0.4363  0.2829
17769THY    CM131541   9.356   4.345   3.097 -0.1322  0.5857  0.0911
17769THY    HM131542   9.355   4.317   3.203 -1.4207  0.7486  0.6902
17769THY    HM231543   9.456   4.389   3.086 -0.5662  1.2029  1.2632
17769THY    HM331544   9.344   4.271   3.017 -0.2462 -3.1206  3.7059
17769THY    CA631545   9.261   4.576   3.132 -0.5865 -0.5026 -0.6982
17769THY    HA631546   9.341   4.593   3.204 -1.7155  0.2210  2.3106
17770THY      O31547   8.714   4.194   3.800 -0.2137  0.2294  0.1385
17770THY     HO31548   8.664   4.118   3.765  1.2010 -1.2733 -0.1637
17770THY    CA131549   8.684   4.200   3.934 -0.3124  0.1436  0.4804
17770THY    CA231550   8.714   4.303   4.017  0.6947 -0.3491 -0.0954
17770THY    CP131551   8.819   4.413   3.974 -0.2114 -0.4772 -0.5478
17770THY    HP131552   8.805   4.434   3.867 -0.3347 -0.7660 -1.9903
17770THY    CP231553   8.957   4.354   3.974 -0.2451 -0.0506 -0.1599
17770THY    HP231554   8.996   4.315   4.068  2.2922 -0.5693  0.9317
17770THY    HP331555   9.014   4.442   3.943 -0.9050  2.2388  1.1637
17770THY    HP431556   8.958   4.287   3.887 -4.8708 -0.7832  0.3500
17770THY    CP331557   8.824   4.541   4.049  0.5720  0.0272 -0.2186
17770THY    HP531558   8.904   4.545   4.124 -0.2794  0.9055  1.2655
17770THY    HP631559   8.724   4.574   4.080  1.1058 -0.1253  1.6451
17770THY    HP731560   8.852   4.621   3.979 -2.4776 -0.5304  0.4579
17770THY    CA331561   8.667   4.291   4.154  0.4475 -0.0227  0.0136
17770THY    HA331562   8.688   4.372   4.222  3.2123 -1.2719  0.4556
17770THY    CA431563   8.589   4.181   4.196  0.0611  0.1266  0.5077
17770THY    HA431564   8.553   4.178   4.298  0.7428  0.3546 -0.4059
17770THY    CA531565   8.559   4.080   4.103  0.5624 -0.0967 -0.7844
17770THY    CM131566   8.470   3.964   4.135 -0.1590  0.4710  0.2017
17770THY    HM131567   8.487   3.869   4.083  0.6895  0.5364  0.3096
17770THY    HM231568   8.362   3.977   4.118 -0.5223  2.3674 -0.1397
17770THY    HM331569   8.483   3.928   4.237  0.3868 -0.5380 -2.7707
17770THY    CA631570   8.616   4.090   3.973  0.4145  0.0449 -0.3042
17770THY    HA631571   8.594   4.015   3.897 -0.5989 -2.5210  2.3955
17771THY      O31572   9.091   6.257   3.289 -0.0764  0.1670  0.0921
17771THY     HO31573   9.054   6.172   3.257 -1.1744  0.8891  0.2787
17771THY    CA131574   9.191   6.215   3.375 -0.0379  0.1433 -0.6037
17771THY    CA231575   9.270   6.307   3.448  0.0073 -0.8555 -0.3755
17771THY    CP131576   9.231   6.451   3.441 -0.0633  0.1178 -0.3651
17771THY    HP131577   9.225   6.489   3.339 -1.4771  0.3558  0.1022
17771THY    CP231578   9.344   6.540   3.493  0.2442  0.0295  0.3297
17771THY    HP231579   9.324   6.643   3.462  1.2369  1.7038  1.0713
17771THY    HP331580   9.439   6.503   3.453 -0.5080  0.1638 -1.8515
17771THY    HP431581   9.357   6.540   3.602 -0.3939  0.1229  1.0597
17771THY    CP331582   9.094   6.458   3.513 -0.3544 -0.6722  0.3012
17771THY    HP531583   9.067   6.564   3.507 -1.6927 -0.9985 -0.0248
17771THY    HP631584   9.104   6.434   3.620  0.1407 -0.8091 -0.1220
17771THY    HP731585   9.011   6.404   3.465 -1.2642  1.1513 -0.0201
17771THY    CA331586   9.377   6.261   3.526 -0.7244  0.1158  0.2434
17771THY    HA331587   9.438   6.326   3.588  1.0337 -1.9368  0.6591
17771THY    CA431588   9.398   6.121   3.534  0.0283 -0.3302  0.5941
17771THY    HA431589   9.477   6.080   3.597  0.7691 -0.4525  1.7842
17771THY    CA531590   9.322   6.036   3.457 -0.5728  0.3462  0.1950
17771THY    CM131591   9.358   5.885   3.468 -0.0687  0.5435  0.2117
17771THY    HM131592   9.302   5.820   3.400 -0.2304  1.5407 -0.7268
17771THY    HM231593   9.323   5.836   3.559 -2.6776 -1.7436 -2.5402
17771THY    HM331594   9.466   5.868   3.461 -0.3933  0.9629 -2.3419
17771THY    CA631595   9.211   6.079   3.385 -0.0627 -0.7200 -0.0280
17771THY    HA631596   9.152   6.007   3.329  2.2261 -1.2904 -1.5795
17772THY      O31597   5.138   5.446   4.236 -0.0844  0.2991  0.1955
17772THY     HO31598   5.189   5.426   4.317  1.5916 -0.7799 -0.1755
17772THY    CA131599   5.203   5.548   4.182 -0.6304  0.3750  0.2717
17772THY    CA231600   5.167   5.587   4.057 -0.2720  0.0545  0.7783
17772THY    CP131601   5.059   5.509   3.975  0.7426 -0.2248 -0.2690
17772THY    HP131602   5.028   5.424   4.036 -1.2205  0.7504  1.0709
17772THY    CP231603   5.129   5.460   3.839 -0.4498 -0.5525  0.1556
17772THY    HP231604   5.228   5.423   3.866 -1.0360 -1.3710 -2.1939
17772THY    HP331605   5.134   5.542   3.766 -1.9459 -1.6907 -0.7110
17772THY    HP431606   5.070   5.386   3.783 -1.0084  0.0272  0.1472
17772THY    CP331607   4.933   5.593   3.942  0.2085  0.0924  0.1079
17772THY    HP531608   4.871   5.606   4.031 -0.5455 -0.2890 -0.7715
17772THY    HP631609   4.876   5.539   3.865 -0.1191  0.9759 -0.8269
17772THY    HP731610   4.958   5.696   3.912 -2.9902  1.3475  1.3828
17772THY    CA331611   5.231   5.691   3.996  0.7856 -0.4538 -0.0909
17772THY    HA331612   5.204   5.734   3.901  0.6824  0.5434  2.2031
17772THY    CA431613   5.332   5.759   4.073 -0.1915 -0.3812  0.4920
17772THY    HA431614   5.371   5.850   4.029 -0.6817 -3.7602 -0.7903
17772THY    CA531615   5.367   5.727   4.204  0.7408 -0.6033  0.1799
17772THY    CM131616   5.460   5.815   4.288 -0.0041 -0.0972 -0.7185
17772THY    HM131617   5.425   5.837   4.389  0.4571  0.4461 -2.4030
17772THY    HM231618   5.476   5.914   4.244  1.6481  0.1902 -0.8439
17772THY    HM331619   5.553   5.763   4.312  2.2867 -2.6228  1.8364
17772THY    CA631620   5.294   5.626   4.259  0.2667  0.2158  0.9225
17772THY    HA631621   5.313   5.590   4.360 -0.5611 -0.4510 -1.5926
17773THY      O31622   4.591   9.196   6.071  0.5575 -0.4545 -0.0458
17773THY     HO31623   4.566   9.108   6.038 -0.0376  0.5436 -0.2674
17773THY    CA131624   4.565   9.177   6.203 -0.3900  0.1927 -0.5830
17773THY    CA231625   4.637   9.247   6.308  0.2304 -0.5879  0.4678
17773THY    CP131626   4.722   9.366   6.272 -0.4144 -0.2309  1.1557
17773THY    HP131627   4.696   9.431   6.188  0.4357 -1.9391 -0.5933
17773THY    CP231628   4.856   9.302   6.235  0.2867 -0.1229 -0.0723
17773THY    HP231629   4.932   9.380   6.219 -1.5158  0.2217  1.8189
17773THY    HP331630   4.859   9.236   6.147  3.0719 -0.4731  0.3953
17773THY    HP431631   4.896   9.239   6.316  1.6162  0.0947  0.9976
17773THY    CP331632   4.734   9.470   6.389  0.3639  0.7733 -0.5714
17773THY    HP531633   4.765   9.424   6.483  0.5075  0.0002 -2.1181
17773THY    HP631634   4.641   9.527   6.390 -0.5459  0.9002 -2.0230
17773THY    HP731635   4.822   9.534   6.374 -0.7018  1.3680  1.1107
17773THY    CA331636   4.610   9.204   6.445  0.7566 -0.6318  0.3937
17773THY    HA331637   4.657   9.256   6.529  1.0155 -1.4611  1.5350
17773THY    CA431638   4.505   9.106   6.465 -0.0359 -0.3403  0.4999
17773THY    HA431639   4.480   9.084   6.568  0.9422 -0.2300 -0.1296
17773THY    CA531640   4.447   9.043   6.361 -0.4230 -0.6857  0.3214
17773THY    CM131641   4.352   8.920   6.381  0.3530  0.5823 -0.6587
17773THY    HM131642   4.248   8.942   6.356  0.3392  0.5389 -0.7735
17773THY    HM231643   4.350   8.895   6.487  1.3986  0.9738  0.7618
17773THY    HM331644   4.398   8.836   6.328  3.2665 -0.5474  1.4482
17773THY    CA631645   4.478   9.074   6.230 -0.1581 -0.3962 -0.1847
17773THY    HA631646   4.417   9.027   6.154  0.8925 -0.1246 -2.0694
17774THY      O31647   8.398   5.925   4.898  0.4802 -0.1591  0.0640
17774THY     HO31648   8.340   5.892   4.827  0.2514 -1.6796  3.2967
17774THY    CA131649   8.484   6.019   4.852 -0.2632 -0.2571 -0.4301
17774THY    CA231650   8.544   6.123   4.934  0.6152 -0.4410 -0.0827
17774THY    CP131651   8.514   6.138   5.086 -0.2086  0.5691  0.5246
17774THY    HP131652   8.417   6.093   5.110 -0.3014 -0.0683  0.3776
17774THY    CP231653   8.490   6.286   5.117 -0.0046  0.1502  0.1804
17774THY    HP231654   8.425   6.339   5.046 -0.6369  0.5298 -0.0833
17774THY    HP331655   8.589   6.334   5.124 -0.6104 -0.6848  1.6299
17774THY    HP431656   8.454   6.289   5.221  0.5364  0.5322  5.8074
17774THY    CP331657   8.625   6.069   5.169 -0.4071  0.3175  0.2650
17774THY    HP531658   8.721   6.120   5.168  0.1929 -1.5087 -0.7948
17774THY    HP631659   8.644   5.968   5.130 -3.4966  1.1716 -0.7744
17774THY    HP731660   8.595   6.071   5.274  1.0517  0.8389 -1.9456
17774THY    CA331661   8.643   6.195   4.870  0.0648  0.1691 -0.8100
17774THY    HA331662   8.701   6.267   4.927  0.5950 -1.2435 -0.0651
17774THY    CA431663   8.668   6.184   4.731 -0.1758  0.4775  0.1678
17774THY    HA431664   8.737   6.247   4.677 -0.7945  0.5914  0.9636
17774THY    CA531665   8.594   6.095   4.653  0.0637 -0.4798  0.3395
17774THY    CM131666   8.605   6.107   4.505 -0.1706  0.3172 -0.2432
17774THY    HM131667   8.549   6.024   4.459  0.9810 -0.5616 -0.5531
17774THY    HM231668   8.710   6.092   4.478 -0.3702 -0.2063 -0.7411
17774THY    HM331669   8.566   6.202   4.466 -1.3426  1.2319 -0.3239
17774THY    CA631670   8.499   6.010   4.712  0.1804  0.0148  0.7173
17774THY    HA631671   8.433   5.943   4.658  1.0681 -1.7549  1.2054
17775THY      O31672   9.057   5.454   5.007  0.2329  0.5326  0.1788
17775THY     HO31673   9.112   5.378   4.981  0.5494  0.5870  0.3879
17775THY    CA131674   9.032   5.510   4.886 -0.3151  0.4568  0.0490
17775THY    CA231675   8.953   5.625   4.869  0.1526  0.1425 -0.3407
17775THY    CP131676   8.884   5.693   4.996  0.0746  1.0100  0.4570
17775THY    HP131677   8.874   5.632   5.087  1.8585  1.3858  0.6807
17775THY    CP231678   8.741   5.737   4.959 -0.0508  0.8196  0.2395
17775THY    HP231679   8.739   5.829   4.899  0.6291 -0.3042 -0.4594
17775THY    HP331680   8.674   5.739   5.046  0.5408  1.4194 -2.4427
17775THY    HP431681   8.693   5.666   4.892 -1.2775  0.8490  1.0118
17775THY    CP331682   8.952   5.820   5.041 -0.3514  0.3309 -0.2316
17775THY    HP531683   8.922   5.870   5.133  1.9681  0.6552  0.7137
17775THY    HP631684   8.951   5.895   4.961  0.2263 -0.6712 -1.2427
17775THY    HP731685   9.059   5.795   5.037 -0.4041 -2.2093 -0.2818
17775THY    CA331686   8.936   5.683   4.744  0.0022  0.9022  0.4868
17775THY    HA331687   8.885   5.778   4.734 -0.2145 -0.9468  0.2046
17775THY    CA431688   8.990   5.623   4.634 -0.4163 -0.4426 -0.4538
17775THY    HA431689   8.966   5.661   4.535  2.9334 -0.6328  1.6470
17775THY    CA531690   9.060   5.501   4.649  0.3147 -0.6184 -0.2811
17775THY    CM131691   9.118   5.432   4.537 -0.0605  0.7327 -0.1103
17775THY    HM131692   9.115   5.322   4.537 -0.1330 -1.4404 -0.1601
17775THY    HM231693   9.218   5.470   4.516 -0.2107 -0.8384 -0.4956
17775THY    HM331694   9.065   5.455   4.444 -2.1379  1.5918 -1.1657
17775THY    CA631695   9.077   5.441   4.778  0.5421 -0.5109 -0.0026
17775THY    HA631696   9.141   5.354   4.786  3.3988 -0.9320  1.9233
17776THY      O31697   2.152   7.125   6.844  0.1816 -0.2981  0.1471
17776THY     HO31698   2.246   7.143   6.831  0.1190 -0.8314  0.1088
17776THY    CA131699   2.131   7.021   6.768  0.4305 -0.2116 -0.1810
17776THY    CA231700   2.004   7.005   6.713 -0.0829  0.0335 -0.5128
17776THY    CP131701   1.897   7.113   6.726  0.4057  0.3266 -0.6171
17776THY    HP131702   1.949   7.208   6.739  0.9858  3.8696 -1.2753
17776THY    CP231703   1.812   7.112   6.854 -0.1932 -0.3498 -0.0331
17776THY    HP231704   1.767   7.012   6.863  1.9855 -0.4402 -1.0791
17776THY    HP331705   1.726   7.181   6.854 -0.1470 -0.0156  0.0236
17776THY    HP431706   1.872   7.132   6.943  1.7881 -1.9490  1.4372
17776THY    CP331707   1.809   7.127   6.603  0.0576 -0.3761  0.4410
17776THY    HP531708   1.755   7.222   6.592 -0.2990 -2.2779  0.0573
17776THY    HP631709   1.730   7.052   6.598  0.1354  0.2301  0.3211
17776THY    HP731710   1.867   7.105   6.512  1.5413  0.2138  1.6721
17776THY    CA331711   1.974   6.888   6.638 -0.1507  0.4647  0.6579
17776THY    HA331712   1.875   6.876   6.593  0.7503 -1.2353 -0.8649
17776THY    CA431713   2.073   6.793   6.615 -0.5100  0.3988 -0.4614
17776THY    HA431714   2.066   6.708   6.549  2.2386  0.4481 -0.7993
17776THY    CA531715   2.196   6.810   6.681  0.8989 -0.2433  0.6013
17776THY    CM131716   2.291   6.696   6.694  0.6526  0.5514  0.5387
17776THY    HM131717   2.238   6.600   6.688  0.8170  1.2838  0.3891
17776THY    HM231718   2.331   6.699   6.797  1.1958  0.3426  0.6593
17776THY    HM331719   2.376   6.710   6.626 -0.4626 -0.4539  2.7845
17776THY    CA631720   2.224   6.920   6.765  0.3536  0.0244 -0.3512
17776THY    HA631721   2.316   6.927   6.823 -0.2170  0.9828 -0.6180
17777THY      O31722   7.592   2.266   5.995  0.6561  0.4452 -0.2070
17777THY     HO31723   7.663   2.299   5.937  1.7045  0.9472 -1.5162
17777THY    CA131724   7.611   2.135   6.006  0.1686  0.4783 -0.1951
17777THY    CA231725   7.544   2.058   6.103  0.8063  1.0320 -0.4346
17777THY    CP131726   7.429   2.122   6.184 -0.0403  0.5099  0.7644
17777THY    HP131727   7.412   2.228   6.164 -0.4666 -0.6186  0.4884
17777THY    CP231728   7.460   2.126   6.340  0.4628 -0.2243  0.2912
17777THY    HP231729   7.488   2.032   6.389 -1.8329  2.6101  0.9317
17777THY    HP331730   7.378   2.178   6.391  0.7502  0.5062  0.0392
17777THY    HP431731   7.546   2.192   6.357  1.6266 -2.0296 -0.6655
17777THY    CP331732   7.307   2.038   6.153  1.0827  0.1599  0.4432
17777THY    HP531733   7.224   2.100   6.190  0.1906 -0.1988 -0.5005
17777THY    HP631734   7.296   1.938   6.197  0.0167 -1.1919 -0.0615
17777THY    HP731735   7.287   2.022   6.047 -1.5214  0.6037  0.1897
17777THY    CA331736   7.577   1.920   6.111 -0.1903  0.3552  0.8194
17777THY    HA331737   7.526   1.855   6.183 -1.2828 -2.4736 -1.6965
17777THY    CA431738   7.685   1.863   6.039 -0.1136  0.3094  0.2952
17777THY    HA431739   7.710   1.759   6.056 -0.8418 -0.2014  0.0222
17777THY    CA531740   7.753   1.945   5.946  0.4164  0.1303  0.1337
17777THY    CM131741   7.866   1.889   5.859 -0.8809  1.0871  0.4198
17777THY    HM131742   7.898   1.945   5.769  2.4905  2.8049  1.5418
17777THY    HM231743   7.826   1.797   5.816 -1.2456 -0.6270  1.3302
17777THY    HM331744   7.952   1.855   5.917 -1.0149 -0.0209 -1.9816
17777THY    CA631745   7.709   2.080   5.925 -0.1769 -0.2231  0.1969
17777THY    HA631746   7.762   2.147   5.858 -1.4167  0.0672  1.5243
17778THY      O31747   8.298   3.096   6.634 -0.1440 -0.2944  0.0053
17778THY     HO31748   8.236   3.022   6.637 -0.5580  0.0776  0.3605
17778THY    CA131749   8.423   3.054   6.634 -0.0293 -0.2895  0.8142
17778THY    CA231750   8.531   3.142   6.635 -0.4259 -0.0986 -0.5878
17778THY    CP131751   8.513   3.293   6.635 -0.5622  0.4775  0.3946
17778THY    HP131752   8.408   3.320   6.618 -0.0649 -0.3640  1.8976
17778THY    CP231753   8.612   3.351   6.526  0.6495 -0.1268 -0.0838
17778THY    HP231754   8.613   3.286   6.438  2.4104  0.3652 -0.7939
17778THY    HP331755   8.716   3.334   6.556  0.2874  1.0124 -0.3865
17778THY    HP431756   8.586   3.454   6.499 -1.8420  1.9635 -0.0747
17778THY    CP331757   8.547   3.347   6.772 -0.5061  0.2565  0.5583
17778THY    HP531758   8.539   3.456   6.775 -0.2326 -0.8455  0.6228
17778THY    HP631759   8.650   3.323   6.801 -0.6375  1.6063  1.5000
17778THY    HP731760   8.487   3.297   6.849  0.6873  1.0647  0.3402
17778THY    CA331761   8.661   3.083   6.645 -0.4140 -0.4006  0.0475
17778THY    HA331762   8.752   3.142   6.652  0.4157 -2.3578 -0.9078
17778THY    CA431763   8.681   2.944   6.632 -0.1074  0.7165  0.0280
17778THY    HA431764   8.782   2.908   6.618  0.0690 -1.3104  1.1472
17778THY    CA531765   8.576   2.858   6.630  0.6675  0.3358  0.4907
17778THY    CM131766   8.591   2.711   6.603 -0.0720 -0.5002  0.4386
17778THY    HM131767   8.635   2.696   6.504 -0.3040 -0.6055  0.4395
17778THY    HM231768   8.494   2.661   6.612  0.8286 -1.3924 -1.5582
17778THY    HM331769   8.653   2.667   6.682 -2.2915  0.4608 -1.1446
17778THY    CA631770   8.446   2.917   6.624  0.3530 -0.2241 -0.1384
17778THY    HA631771   8.359   2.853   6.611 -2.3195  0.3573  3.0777
17779THY      O31772   3.606   7.884   6.855  0.4576 -0.5802  0.6759
17779THY     HO31773   3.569   7.874   6.766 -2.4354  0.7320 -2.2660
17779THY    CA131774   3.737   7.903   6.835 -0.0221 -0.2697  0.0430
17779THY    CA231775   3.836   7.818   6.887  0.2587 -0.1573 -0.2387
17779THY    CP131776   3.799   7.687   6.951 -0.3064  0.3049  0.1695
17779THY    HP131777   3.692   7.667   6.961 -1.1319 -2.0841  2.7045
17779THY    CP231778   3.869   7.648   7.081  0.1850 -0.1611 -0.4010
17779THY    HP231779   3.875   7.726   7.158  0.6859 -2.2634  1.7404
17779THY    HP331780   3.976   7.631   7.064 -0.1763 -1.9624 -1.1341
17779THY    HP431781   3.831   7.561   7.135  1.5367 -1.2630 -1.7213
17779THY    CP331782   3.845   7.573   6.862 -1.0279  0.6220 -0.4144
17779THY    HP531783   3.776   7.570   6.777  0.9849 -1.1347  0.4767
17779THY    HP631784   3.831   7.474   6.908  2.5319  2.6482 -0.1584
17779THY    HP731785   3.951   7.577   6.833 -1.3330 -0.4869 -0.0644
17779THY    CA331786   3.972   7.851   6.872 -0.2611  0.3892  0.1170
17779THY    HA331787   4.045   7.781   6.913  1.8527 -2.3633  0.5141
17779THY    CA431788   4.002   7.976   6.811  0.7505  0.3832 -0.6912
17779THY    HA431789   4.105   8.011   6.803  0.2456  0.6190  0.9323
17779THY    CA531790   3.903   8.053   6.749  0.3819 -0.0880  0.3332
17779THY    CM131791   3.926   8.177   6.673  0.1833 -0.4255 -0.3158
17779THY    HM131792   3.942   8.142   6.571 -2.1455 -0.1572 -2.4757
17779THY    HM231793   4.012   8.229   6.716 -2.1536  3.1913  1.0071
17779THY    HM331794   3.846   8.252   6.675  2.2998  0.0038  2.0651
17779THY    CA631795   3.767   8.018   6.763 -0.7615  0.3403  0.4813
17779THY    HA631796   3.690   8.085   6.725 -0.0074 -1.6504  0.2771
17780THY      O31797   8.177   6.414   6.361  0.0888  0.0538 -0.4174
17780THY     HO31798   8.100   6.364   6.328  0.4799 -0.5460 -0.6233
17780THY    CA131799   8.268   6.391   6.264 -0.1990  0.0944 -0.7392
17780THY    CA231800   8.326   6.496   6.190  0.4504 -0.0977 -0.4066
17780THY    CP131801   8.288   6.641   6.226  0.7641  0.3236 -0.7427
17780THY    HP131802   8.244   6.650   6.325  0.7446  0.2233  0.4195
17780THY    CP231803   8.173   6.707   6.148  0.4076  0.5484  0.0664
17780THY    HP231804   8.161   6.813   6.172  0.3951  2.5174 -0.3416
17780THY    HP331805   8.078   6.653   6.162 -0.7730 -0.5646  1.7650
17780THY    HP431806   8.199   6.692   6.042 -1.2399  0.1193 -0.0303
17780THY    CP331807   8.415   6.739   6.221  0.4937  0.8301 -0.2144
17780THY    HP531808   8.493   6.684   6.276  0.1484 -0.9735 -2.6825
17780THY    HP631809   8.397   6.838   6.265 -0.6501  0.7565 -0.3718
17780THY    HP731810   8.447   6.757   6.118 -3.1091 -0.1785  1.3857
17780THY    CA331811   8.426   6.469   6.099 -0.4012 -0.4110  0.7603
17780THY    HA331812   8.477   6.550   6.048 -0.5127  0.6559  1.5278
17780THY    CA431813   8.474   6.333   6.080  0.0130 -0.0840  0.2089
17780THY    HA431814   8.560   6.321   6.015 -1.4517 -2.2088  0.6355
17780THY    CA531815   8.426   6.232   6.159 -0.1806  0.0692  0.0090
17780THY    CM131816   8.482   6.094   6.144  0.4434 -0.0734  0.0536
17780THY    HM131817   8.560   6.067   6.216  0.5376 -0.8184 -1.8142
17780THY    HM231818   8.526   6.071   6.046  0.0735 -0.6009  1.4904
17780THY    HM331819   8.389   6.037   6.155 -0.2363  0.2211  1.1958
17780THY    CA631820   8.319   6.262   6.244 -0.4654 -0.1999  0.3329
17780THY    HA631821   8.286   6.186   6.314 -2.2800 -1.0104  0.3060
17781THY      O31822   7.112   2.624   4.153  0.7679 -0.2521  0.2397
17781THY     HO31823   7.147   2.714   4.161 -2.0436  0.3580  1.3697
17781THY    CA131824   7.069   2.603   4.287 -0.5412  0.7331  0.7406
17781THY    CA231825   6.998   2.487   4.324  0.6027 -0.1564  0.7798
17781THY    CP131826   6.951   2.390   4.218 -0.4694 -0.8658  0.5325
17781THY    HP131827   7.001   2.408   4.121 -0.2906 -0.8710  0.0176
17781THY    CP231828   6.801   2.402   4.186 -0.2506 -0.2481  0.3249
17781THY    HP231829   6.788   2.325   4.109 -0.2507 -1.6559  1.6790
17781THY    HP331830   6.791   2.500   4.139  2.8208 -0.5640  0.5941
17781THY    HP431831   6.750   2.379   4.280 -1.8634 -0.9709  0.7922
17781THY    CP331832   6.984   2.245   4.260  0.6099  0.4837 -0.4386
17781THY    HP531833   6.910   2.197   4.326 -1.1605  0.9133  2.5603
17781THY    HP631834   7.079   2.260   4.313  0.7766 -0.6272  3.7193
17781THY    HP731835   6.996   2.188   4.168  2.1620 -2.1742  3.7562
17781THY    CA331836   6.954   2.465   4.461 -0.5142  0.4906  0.4552
17781THY    HA331837   6.882   2.391   4.493  0.4393  0.3907 -0.5429
17781THY    CA431838   6.995   2.565   4.554 -0.3357 -0.3673 -0.7596
17781THY    HA431839   6.950   2.565   4.652 -0.5977 -0.4129  1.9265
17781THY    CA531840   7.070   2.675   4.507 -0.2746  0.7865 -0.4576
17781THY    CM131841   7.099   2.787   4.608  0.3307  0.7902 -0.5209
17781THY    HM131842   7.157   2.864   4.554  0.7921  0.8105 -0.8503
17781THY    HM231843   7.154   2.758   4.698  1.1209  0.6259  0.3817
17781THY    HM331844   7.006   2.834   4.642 -0.9164 -0.1569 -2.2078
17781THY    CA631845   7.110   2.692   4.375  0.1689 -0.8081  0.8003
17781THY    HA631846   7.177   2.775   4.351  3.6114  0.7180 -1.3272
17782THY      O31847   2.025   6.534   5.160 -0.0634  0.3146 -0.2045
17782THY     HO31848   1.935   6.496   5.153  0.8204 -1.2943 -2.2065
17782THY    CA131849   2.067   6.497   5.278 -0.7263 -0.4675  0.0030
17782THY    CA231850   2.197   6.446   5.296 -0.8350 -0.5539 -0.1718
17782THY    CP131851   2.297   6.441   5.179  0.3401 -0.1766 -0.3547
17782THY    HP131852   2.255   6.480   5.085 -1.3551 -0.1775 -2.0263
17782THY    CP231853   2.318   6.295   5.139 -0.5444  0.5693  0.0682
17782THY    HP231854   2.369   6.240   5.220  0.5286  0.2789  0.6103
17782THY    HP331855   2.385   6.279   5.053 -0.6610  0.3115  0.9317
17782THY    HP431856   2.226   6.247   5.104  0.9513  0.8282 -3.3238
17782THY    CP331857   2.426   6.524   5.199  0.3465 -0.0257 -0.0024
17782THY    HP531858   2.503   6.469   5.143 -0.6806 -1.1779 -0.3031
17782THY    HP631859   2.458   6.536   5.304  2.4940 -0.6514  0.2733
17782THY    HP731860   2.417   6.623   5.152  0.8964 -0.7552 -0.2925
17782THY    CA331861   2.236   6.423   5.429 -0.3358  0.3741  0.4799
17782THY    HA331862   2.339   6.394   5.445 -0.1642  1.2534  1.5199
17782THY    CA431863   2.154   6.430   5.538 -0.0304  0.2046 -0.2958
17782THY    HA431864   2.189   6.420   5.640 -0.1752  0.3340  0.4888
17782THY    CA531865   2.017   6.465   5.513 -0.2350 -0.1798 -0.1415
17782THY    CM131866   1.924   6.480   5.629  0.1379 -0.2020 -0.7109
17782THY    HM131867   1.906   6.385   5.680 -0.9401  1.2827  0.2513
17782THY    HM231868   1.827   6.504   5.585  0.8961 -0.9971  1.0881
17782THY    HM331869   1.964   6.549   5.705 -0.1771  0.7163 -1.5251
17782THY    CA631870   1.972   6.497   5.381 -0.8356  0.4227 -0.1112
17782THY    HA631871   1.866   6.507   5.362 -0.3315 -2.1559  0.9558
17783THY      O31872   5.776   1.272   7.316  0.3007 -0.8388 -0.0763
17783THY     HO31873   5.781   1.292   7.221 -0.6425 -0.8296  0.2907
17783THY    CA131874   5.644   1.301   7.337  0.2495  0.3095  0.5007
17783THY    CA231875   5.580   1.245   7.450 -0.3855 -1.0213  0.1693
17783THY    CP131876   5.663   1.143   7.530 -0.7478  0.7578  0.1918
17783THY    HP131877   5.767   1.179   7.534 -0.3577 -2.9999 -0.0606
17783THY    CP231878   5.667   1.005   7.464  0.1149  0.3806  0.5652
17783THY    HP231879   5.760   0.959   7.499  0.1950 -1.2277 -0.5650
17783THY    HP331880   5.675   1.017   7.356 -2.3996  0.2298  1.4240
17783THY    HP431881   5.576   0.947   7.485  0.3520 -1.1120 -0.3845
17783THY    CP331882   5.620   1.138   7.682  0.1143  0.2457 -1.0228
17783THY    HP531883   5.595   1.239   7.716 -2.4407  1.4811 -1.9772
17783THY    HP631884   5.699   1.084   7.736  0.5199 -1.7939 -2.6183
17783THY    HP731885   5.529   1.078   7.696  0.3246 -1.1648 -1.7279
17783THY    CA331886   5.447   1.275   7.472 -0.3114 -0.3121  0.4404
17783THY    HA331887   5.395   1.231   7.557  2.3990  0.9339 -0.6405
17783THY    CA431888   5.388   1.374   7.387  0.3202  0.2496  0.5226
17783THY    HA431889   5.285   1.398   7.412 -0.7115  1.0214 -3.7925
17783THY    CA531890   5.458   1.436   7.289 -0.6090  0.1515  0.0614
17783THY    CM131891   5.392   1.550   7.219 -0.1051 -0.2435 -0.4494
17783THY    HM131892   5.434   1.567   7.119  3.1495  1.1203  0.3994
17783THY    HM231893   5.412   1.645   7.271  1.3298 -0.2530 -0.7184
17783THY    HM331894   5.284   1.534   7.211 -0.2659 -0.0320  0.4529
17783THY    CA631895   5.590   1.399   7.261  0.0816 -0.1468  0.1399
17783THY    HA631896   5.642   1.451   7.181 -0.6422 -0.6144  0.1691
17784THY      O31897   8.907   0.386   4.183  0.0294 -0.4755 -0.7657
17784THY     HO31898   8.950   0.392   4.270 -1.7169  0.3360  1.1292
17784THY    CA131899   8.998   0.402   4.088  0.3432 -0.3942 -0.3402
17784THY    CA231900   8.964   0.388   3.950 -0.9285 -0.1449 -0.1647
17784THY    CP131901   8.819   0.380   3.904  0.6809  0.2725  0.3460
17784THY    HP131902   8.753   0.349   3.986 -1.4285 -1.3938  0.1360
17784THY    CP231903   8.804   0.261   3.808  0.1701 -0.4442  0.1147
17784THY    HP231904   8.832   0.163   3.850  0.8498  0.2909  0.6153
17784THY    HP331905   8.874   0.268   3.724 -0.6389 -0.9510  2.9510
17784THY    HP431906   8.710   0.266   3.752  1.0158 -1.7738  2.0097
17784THY    CP331907   8.771   0.512   3.841  0.1688 -0.4714  0.6447
17784THY    HP531908   8.665   0.526   3.862  0.0129 -1.4281  0.9859
17784THY    HP631909   8.782   0.515   3.732  1.7124 -0.5181 -2.4387
17784THY    HP731910   8.818   0.600   3.886  0.2978  1.3579 -0.3109
17784THY    CA331911   9.071   0.382   3.860 -0.6745 -0.5051  0.1762
17784THY    HA331912   9.058   0.374   3.752  1.2524 -0.9459  1.9315
17784THY    CA431913   9.203   0.388   3.907  0.9918  0.0784  0.4810
17784THY    HA431914   9.292   0.388   3.844  1.8601  1.2257 -1.2088
17784THY    CA531915   9.235   0.404   4.042 -0.0178  0.4230  0.5237
17784THY    CM131916   9.381   0.408   4.091  0.7544 -0.6776 -0.1625
17784THY    HM131917   9.376   0.380   4.197 -0.2235 -1.0347 -1.4604
17784THY    HM231918   9.436   0.498   4.059  0.0849 -3.9213 -0.7804
17784THY    HM331919   9.444   0.334   4.040  0.9006 -1.8988  0.7668
17784THY    CA631920   9.131   0.407   4.134  0.2044 -0.0857  0.5648
17784THY    HA631921   9.152   0.415   4.240 -0.0109  0.1595 -1.4982
17785THY      O31922   3.124   6.668   3.724 -0.4624 -0.0634  0.3653
17785THY     HO31923   3.040   6.629   3.693  1.0440 -1.3375 -2.1085
17785THY    CA131924   3.083   6.795   3.747  0.4196 -0.3653 -0.0040
17785THY    CA231925   3.176   6.900   3.771  0.2906 -0.2390  0.0652
17785THY    CP131926   3.317   6.880   3.755 -0.4707 -0.5374 -1.1596
17785THY    HP131927   3.342   6.794   3.692 -1.1381 -0.7992 -1.1656
17785THY    CP231928   3.382   6.885   3.897 -0.3201 -0.0808 -1.0619
17785THY    HP231929   3.373   6.974   3.960  0.8193  1.0766 -1.7484
17785THY    HP331930   3.488   6.863   3.877 -0.6018 -1.3105 -1.3997
17785THY    HP431931   3.348   6.802   3.958  1.3944 -0.8479 -2.3888
17785THY    CP331932   3.376   6.991   3.665  0.3803 -0.1334 -0.0822
17785THY    HP531933   3.484   6.980   3.652  0.6762 -0.5668  2.5272
17785THY    HP631934   3.353   7.088   3.711 -3.6625  1.2948 -1.5025
17785THY    HP731935   3.340   6.986   3.561  0.1848 -0.0372 -0.7279
17785THY    CA331936   3.108   7.018   3.827  0.6190 -0.4433  0.7828
17785THY    HA331937   3.160   7.105   3.865  0.5241  0.2957  0.5245
17785THY    CA431938   2.973   7.018   3.858 -0.3448 -0.4013  0.3876
17785THY    HA431939   2.933   7.097   3.920 -2.4477 -0.4814 -0.5479
17785THY    CA531940   2.892   6.909   3.841 -0.1937  0.2400 -0.1255
17785THY    CM131941   2.757   6.908   3.899  0.1328 -0.1295  0.0981
17785THY    HM131942   2.767   6.881   4.005 -0.5306  0.8661  3.3626
17785THY    HM231943   2.690   6.837   3.850  0.8421 -1.2176  0.1675
17785THY    HM331944   2.705   7.004   3.895 -0.1808 -0.0701 -0.0657
17785THY    CA631945   2.946   6.795   3.788 -0.0768  0.4066  0.4675
17785THY    HA631946   2.883   6.707   3.773  0.0047 -0.1280  0.5015
17786THY      O31947   5.309   3.707   7.370  0.1347 -0.1360  0.2458
17786THY     HO31948   5.234   3.646   7.358  1.9298 -5.4258 -1.4423
17786THY    CA131949   5.274   3.782   7.474  0.1655  0.7575 -0.6629
17786THY    CA231950   5.361   3.807   7.581 -0.4019 -0.1025  0.3439
17786THY    CP131951   5.505   3.754   7.588  0.2923 -0.0974  0.1107
17786THY    HP131952   5.523   3.698   7.496 -2.6522  0.6208 -2.2840
17786THY    CP231953   5.522   3.661   7.711  0.6102  0.0553  0.0159
17786THY    HP231954   5.501   3.715   7.805 -1.0596 -1.1521  1.6180
17786THY    HP331955   5.613   3.606   7.733  0.6331 -0.8857 -0.3350
17786THY    HP431956   5.446   3.582   7.710  0.9366 -0.6312 -0.2909
17786THY    CP331957   5.609   3.862   7.589 -0.1554  0.3902  0.0043
17786THY    HP531958   5.710   3.827   7.612 -0.1894  3.0207  1.4065
17786THY    HP631959   5.580   3.937   7.663  2.9375 -0.0705  1.8405
17786THY    HP731960   5.605   3.919   7.495 -2.4555 -0.4353 -1.3661
17786THY    CA331961   5.311   3.896   7.686 -0.1660 -0.1051  0.3278
17786THY    HA331962   5.373   3.932   7.767 -0.9763  0.2057  1.0646
17786THY    CA431963   5.186   3.955   7.670 -0.3600 -0.0358  0.0511
17786THY    HA431964   5.149   4.017   7.751  0.0675  0.9799 -0.9884
17786THY    CA531965   5.100   3.936   7.558 -0.0368  0.5554 -0.0629
17786THY    CM131966   4.976   4.015   7.539  0.0814 -0.0334 -0.3267
17786THY    HM131967   4.930   4.040   7.635 -0.6176  0.1212 -2.0816
17786THY    HM231968   4.901   3.956   7.484 -0.2838  2.1950 -2.0717
17786THY    HM331969   4.996   4.111   7.489 -1.0548  0.6223  0.2660
17786THY    CA631970   5.144   3.844   7.460 -0.1809 -0.5311  0.1002
17786THY    HA631971   5.070   3.826   7.383 -2.2706  0.6532  2.8913
17787THY      O31972   8.448   1.462   5.728 -0.0982  0.1179 -0.1472
17787THY     HO31973   8.543   1.442   5.721  0.5924  2.5385  1.7588
17787THY    CA131974   8.399   1.481   5.601  0.1822 -0.5707 -0.8250
17787THY    CA231975   8.333   1.596   5.556 -0.2021  0.3030 -0.9944
17787THY    CP131976   8.321   1.718   5.651 -0.0765 -0.1564 -0.3686
17787THY    HP131977   8.331   1.693   5.757  0.6498 -0.0719  0.2285
17787THY    CP231978   8.189   1.801   5.637  0.2300 -0.0034  0.2288
17787THY    HP231979   8.182   1.880   5.713 -0.1823 -0.0125  0.2023
17787THY    HP331980   8.106   1.733   5.661  0.3932  5.1559  1.3848
17787THY    HP431981   8.178   1.860   5.545 -1.3887  1.0739  1.7362
17787THY    CP331982   8.430   1.812   5.622  0.0874  0.3953  0.0572
17787THY    HP531983   8.430   1.901   5.686 -0.7303 -0.7991  0.9438
17787THY    HP631984   8.431   1.843   5.517 -3.8679  0.2047  0.1432
17787THY    HP731985   8.520   1.753   5.641  0.9322 -0.9623  0.8619
17787THY    CA331986   8.301   1.612   5.415  0.2951  0.0113  0.5377
17787THY    HA331987   8.245   1.697   5.377 -1.4058 -1.2514 -1.0588
17787THY    CA431988   8.334   1.500   5.326  0.2918  0.5515 -0.1926
17787THY    HA431989   8.317   1.506   5.219  0.2371  0.5801  0.1358
17787THY    CA531990   8.393   1.387   5.378 -0.1530 -0.1172 -0.5262
17787THY    CM131991   8.416   1.268   5.283 -0.1464  0.3844  0.0446
17787THY    HM131992   8.327   1.205   5.276  0.0838  2.1291 -0.5390
17787THY    HM231993   8.496   1.202   5.321  1.5626  1.2167  2.4416
17787THY    HM331994   8.436   1.306   5.182 -0.7326  0.6117  0.9997
17787THY    CA631995   8.430   1.379   5.513  0.1696 -0.9975  0.3641
17787THY    HA631996   8.489   1.292   5.540  0.4342 -0.1397  0.8018
17788THY      O31997   3.286   8.101   6.784 -0.3572 -0.1471 -0.2097
17788THY     HO31998   3.305   8.071   6.874  3.8658 -1.1676 -1.2797
17788THY    CA131999   3.262   8.231   6.779 -0.0667 -0.5312  0.4428
17788THY    CA232000   3.237   8.293   6.656 -0.2198  0.1716 -0.2046
17788THY    CP132001   3.241   8.215   6.520 -0.6258 -0.5281  0.1819
17788THY    HP132002   3.215   8.110   6.540 -1.3944 -1.2692  0.2197
17788THY    CP232003   3.369   8.218   6.444  0.3133 -0.1987  1.3606
17788THY    HP232004   3.448   8.196   6.516 -0.0436 -0.4218 -0.8422
17788THY    HP332005   3.391   8.312   6.392  2.6715 -2.2924 -0.1972
17788THY    HP432006   3.385   8.138   6.371  2.7238  1.2441  0.4166
17788THY    CP332007   3.132   8.264   6.429 -0.3317  0.7170  0.3368
17788THY    HP532008   3.097   8.183   6.363 -1.6449 -0.3998  1.7743
17788THY    HP632009   3.160   8.357   6.379 -3.2686 -0.3715  0.7351
17788THY    HP732010   3.047   8.292   6.492 -1.4937 -0.5403 -0.2437
17788THY    CA332011   3.200   8.431   6.664  0.3414  0.3147  0.7738
17788THY    HA332012   3.179   8.482   6.571 -1.6337  1.2753  1.8362
17788THY    CA432013   3.197   8.497   6.789  0.4426  0.7467 -0.1348
17788THY    HA432014   3.172   8.602   6.780 -1.6500 -1.2088 -0.7331
17788THY    CA532015   3.210   8.426   6.910  0.3679  0.2360  0.2821
17788THY    CM132016   3.196   8.502   7.032 -0.0571 -0.3443  0.8711
17788THY    HM132017   3.204   8.610   7.017  0.9991 -1.4001  0.6626
17788THY    HM232018   3.271   8.465   7.103 -0.5042  0.0494  0.7050
17788THY    HM332019   3.096   8.489   7.076  0.5024  1.0255  1.1119
17788THY    CA632020   3.242   8.294   6.903 -0.7539  0.0928  0.3910
17788THY    HA632021   3.256   8.243   6.998 -1.5361 -0.4444 -0.8813
17789THY      O32022   8.170   8.120   2.392 -0.0246 -0.2916 -0.0886
17789THY     HO32023   8.242   8.095   2.452  0.8438 -0.7282  1.2170
17789THY    CA132024   8.233   8.102   2.281 -0.1148  0.1008 -0.3618
17789THY    CA232025   8.210   8.182   2.164 -0.4835  0.6523 -0.6113
17789THY    CP132026   8.121   8.303   2.171  0.2271  0.1719 -0.2377
17789THY    HP132027   8.062   8.293   2.263  0.3278  0.1784 -0.8452
17789THY    CP232028   8.014   8.305   2.059 -0.8144  0.0545  0.4602
17789THY    HP232029   7.969   8.205   2.061  2.1278  1.1456 -0.9924
17789THY    HP332030   8.053   8.315   1.957  0.6474  0.4791 -0.4533
17789THY    HP432031   7.943   8.381   2.093  0.5544  0.3073  1.6831
17789THY    CP332032   8.194   8.429   2.177  0.0540 -0.7084  0.7108
17789THY    HP532033   8.269   8.430   2.097  1.4972  0.4005 -2.6971
17789THY    HP632034   8.248   8.441   2.272 -3.0154  1.3127 -0.4391
17789THY    HP732035   8.117   8.507   2.178 -2.0140  1.4617 -1.1869
17789THY    CA332036   8.266   8.140   2.044  0.2189  0.3008 -0.6907
17789THY    HA332037   8.257   8.202   1.955  0.6812 -0.7260 -2.0470
17789THY    CA432038   8.346   8.026   2.039 -0.1931  0.1230  0.1074
17789THY    HA432039   8.408   7.999   1.954  0.9845  0.0610  2.6844
17789THY    CA532040   8.360   7.950   2.151  0.2199 -0.1985 -0.5828
17789THY    CM132041   8.430   7.816   2.139 -0.3772  0.3163  0.3994
17789THY    HM132042   8.460   7.791   2.037 -0.4996  0.1778  0.7975
17789THY    HM232043   8.352   7.746   2.172  1.5985  1.8412 -1.1814
17789THY    HM332044   8.514   7.810   2.208  0.2652 -0.2997  1.7244
17789THY    CA632045   8.307   7.987   2.270  0.4029  0.3827 -0.7534
17789THY    HA632046   8.309   7.923   2.357 -3.0918 -0.5745 -2.4201
17790THY      O32047   0.410   1.328   6.733  0.1789 -0.1013 -0.8440
17790THY     HO32048   0.419   1.413   6.687  0.7205 -0.1231 -0.9066
17790THY    CA132049   0.522   1.259   6.695 -0.2799  0.5165 -0.4980
17790THY    CA232050   0.562   1.136   6.749  0.2753 -0.8527 -0.0229
17790THY    CP132051   0.470   1.060   6.846  0.0832 -0.1476 -0.6578
17790THY    HP132052   0.378   1.114   6.871  0.2650 -1.4042  0.2985
17790THY    CP232053   0.535   1.045   6.984  0.1724 -0.2006 -0.4560
17790THY    HP232054   0.590   0.950   6.989  0.5349 -2.4877 -0.4235
17790THY    HP332055   0.470   1.063   7.071  0.9599  0.1533  0.8788
17790THY    HP432056   0.604   1.127   7.006  0.3802  0.7329 -0.8620
17790THY    CP332057   0.431   0.929   6.780 -0.1498  0.6614  0.4002
17790THY    HP532058   0.376   0.953   6.688 -1.8720  1.3420 -0.7374
17790THY    HP632059   0.358   0.878   6.843 -1.0576 -2.0506 -1.8915
17790THY    HP732060   0.508   0.857   6.750 -2.0739 -2.6134 -0.5266
17790THY    CA332061   0.694   1.086   6.718  0.0726  0.7606 -0.6404
17790THY    HA332062   0.715   0.988   6.760  0.4650 -0.0813 -0.9295
17790THY    CA432063   0.767   1.153   6.617  0.3547 -0.2886  0.1840
17790THY    HA432064   0.865   1.115   6.590  0.3150  0.1367 -0.2374
17790THY    CA532065   0.727   1.270   6.560 -0.5242  0.3747  0.4237
17790THY    CM132066   0.826   1.344   6.465 -0.0579  0.3571  0.0841
17790THY    HM132067   0.920   1.374   6.514  0.5936 -0.9642  0.2825
17790THY    HM232068   0.772   1.430   6.424  0.5222 -0.6774 -0.0231
17790THY    HM332069   0.869   1.288   6.381  1.9976  0.1149  1.8909
17790THY    CA632070   0.609   1.330   6.604 -0.1335 -0.4502  0.1268
17790THY    HA632071   0.577   1.423   6.558 -0.6146 -2.5046 -0.9820
17791THY      O32072   1.180   3.085   5.400 -0.5600 -0.1761  0.3268
17791THY     HO32073   1.245   3.013   5.388  2.0425  0.3763  2.4400
17791THY    CA132074   1.132   3.088   5.529 -0.2979  1.2695  1.1751
17791THY    CA232075   1.033   3.180   5.574 -0.0065  0.4570  0.3061
17791THY    CP132076   0.976   3.263   5.463 -0.9235  0.6516  0.3063
17791THY    HP132077   1.049   3.283   5.383 -0.1420  0.9788 -1.0967
17791THY    CP232078   0.939   3.400   5.514 -0.6915  0.1974  0.1386
17791THY    HP232079   0.958   3.472   5.433  0.1750 -0.2580 -0.5710
17791THY    HP332080   1.005   3.433   5.595  0.5933 -0.3367 -1.0250
17791THY    HP432081   0.834   3.403   5.544 -1.4142 -1.6462 -2.7514
17791THY    CP332082   0.852   3.194   5.405 -0.1366  1.5175 -0.3118
17791THY    HP532083   0.816   3.245   5.315 -1.4234  1.5620 -1.0769
17791THY    HP632084   0.772   3.183   5.480 -0.2570  1.3771 -0.4069
17791THY    HP732085   0.864   3.098   5.352 -0.0789 -0.5218  0.7765
17791THY    CA332086   0.989   3.179   5.710  0.1349  0.7108  0.0915
17791THY    HA332087   0.914   3.255   5.732  1.4734  0.1124  1.6565
17791THY    CA432088   1.035   3.084   5.797 -0.1367  0.2089 -0.1169
17791THY    HA432089   1.002   3.090   5.900 -3.4671 -0.7210 -0.7759
17791THY    CA532090   1.135   2.991   5.758 -0.1502 -0.1624  0.4635
17791THY    CM132091   1.214   2.913   5.865  0.2014 -0.6877 -0.6438
17791THY    HM132092   1.149   2.827   5.887  0.5300 -2.1556 -1.2986
17791THY    HM232093   1.238   2.984   5.945 -1.5981 -1.2069  0.6187
17791THY    HM332094   1.298   2.864   5.814  0.3005 -0.8245 -0.3305
17791THY    CA632095   1.182   2.997   5.629  0.3421 -0.5446 -0.0953
17791THY    HA632096   1.263   2.929   5.608  0.6187 -0.1056  0.0947
17792THY      O32097   5.697   0.491   7.116  0.1115  0.4375 -0.4654
17792THY     HO32098   5.660   0.580   7.104 -2.5706 -1.5811 -1.7274
17792THY    CA132099   5.758   0.474   7.233 -0.3055  0.2370  0.2888
17792THY    CA232100   5.873   0.401   7.250 -0.4260 -0.3039 -0.2412
17792THY    CP132101   5.944   0.335   7.131  0.3605  1.1285 -0.4233
17792THY    HP132102   5.889   0.354   7.038  0.9836  0.8423  0.0287
17792THY    CP232103   5.972   0.184   7.154 -0.5305 -0.0030  0.6996
17792THY    HP232104   5.998   0.132   7.061  0.6260 -0.0630  1.3484
17792THY    HP332105   5.887   0.133   7.201  0.1433 -0.9941 -1.4257
17792THY    HP432106   6.060   0.177   7.219 -1.4473  1.0614 -2.8325
17792THY    CP332107   6.078   0.399   7.097  0.3808 -0.3648  0.2407
17792THY    HP532108   6.133   0.410   7.192  0.1900 -0.1445 -0.6575
17792THY    HP632109   6.057   0.499   7.058  0.0254 -0.2108  0.2273
17792THY    HP732110   6.137   0.337   7.029  1.0245  0.5033 -0.1278
17792THY    CA332111   5.924   0.396   7.379  0.3121 -0.4034  0.0153
17792THY    HA332112   6.006   0.327   7.397 -0.0058  0.1222 -0.2324
17792THY    CA432113   5.856   0.466   7.483 -0.1383  0.4871 -0.0890
17792THY    HA432114   5.895   0.449   7.583  0.5825 -0.2255 -3.2366
17792THY    CA532115   5.735   0.531   7.463  0.0433  0.3273  0.0424
17792THY    CM132116   5.664   0.587   7.587 -0.8891 -0.0909  0.4298
17792THY    HM132117   5.661   0.515   7.670  0.4507 -0.2599  0.1608
17792THY    HM232118   5.562   0.617   7.559 -0.8793 -1.6634 -0.8832
17792THY    HM332119   5.733   0.664   7.621  0.9217 -0.8411 -0.7961
17792THY    CA632120   5.690   0.541   7.330 -0.3724 -0.2197 -0.2357
17792THY    HA632121   5.596   0.595   7.317  0.0424  1.2368  0.9032
17793THY      O32122   4.748   3.337   6.003  0.4169 -0.3011 -0.1456
17793THY     HO32123   4.720   3.297   6.087 -0.3876 -0.8485 -0.7667
17793THY    CA132124   4.759   3.470   6.031  0.0954  0.2233 -0.2690
17793THY    CA232125   4.802   3.556   5.929  0.6276 -0.0066  0.1806
17793THY    CP132126   4.829   3.506   5.785  0.1331  0.5764  0.1636
17793THY    HP132127   4.759   3.425   5.760 -1.2977  2.6312  0.6773
17793THY    CP232128   4.969   3.455   5.770  0.3439 -0.6876  0.1596
17793THY    HP232129   4.985   3.419   5.668  1.9120  0.0830 -1.5010
17793THY    HP332130   4.986   3.372   5.840  0.4196  0.4204  1.0900
17793THY    HP432131   5.053   3.519   5.799 -0.0175  2.2801 -0.5575
17793THY    CP332132   4.801   3.625   5.691 -0.0721 -0.1580  0.7724
17793THY    HP532133   4.881   3.698   5.704  0.3694 -3.4048  0.9736
17793THY    HP632134   4.707   3.673   5.722 -1.2669 -1.3526 -0.6971
17793THY    HP732135   4.794   3.599   5.585 -2.2567 -0.3129  1.7576
17793THY    CA332136   4.822   3.695   5.970 -0.3426  0.5210 -0.3268
17793THY    HA332137   4.843   3.781   5.907 -0.1103  0.4883 -0.4058
17793THY    CA432138   4.806   3.735   6.105  0.1730  0.1717 -0.1304
17793THY    HA432139   4.817   3.838   6.137  0.3931 -2.5958  0.7789
17793THY    CA532140   4.765   3.641   6.199 -0.3257 -0.0122  0.0734
17793THY    CM132141   4.733   3.692   6.337  0.0232  0.1002 -0.2573
17793THY    HM132142   4.658   3.623   6.378 -0.9153 -2.2366 -0.7133
17793THY    HM232143   4.692   3.793   6.335  1.3131  0.8908  0.3129
17793THY    HM332144   4.817   3.689   6.408 -0.6626  0.9674  0.3608
17793THY    CA632145   4.739   3.506   6.163 -0.2878 -0.2544 -0.3636
17793THY    HA632146   4.705   3.435   6.237 -1.7656  0.1118  0.7016
17794THY      O32147   7.033   7.840   1.926  0.1574  0.4842  0.7622
17794THY     HO32148   7.120   7.884   1.930 -0.7235  0.8108  2.5739
17794THY    CA132149   7.022   7.773   2.044  0.9536 -0.8832 -0.0843
17794THY    CA232150   6.897   7.716   2.084  0.0454  0.1086  0.2107
17794THY    CP132151   6.774   7.722   1.996  0.2244 -0.5021 -0.0436
17794THY    HP132152   6.784   7.788   1.909 -0.1407 -0.9659 -0.5864
17794THY    CP232153   6.650   7.780   2.068 -0.4997  0.4055 -0.5160
17794THY    HP232154   6.574   7.799   1.991  0.5932 -0.6058 -0.1043
17794THY    HP332155   6.672   7.879   2.110 -2.9540  1.5447 -0.3762
17794THY    HP432156   6.615   7.717   2.150 -1.5630  0.3369 -0.0482
17794THY    CP332157   6.744   7.571   1.949 -0.9325  0.2127  0.0456
17794THY    HP532158   6.833   7.536   1.896  0.2899  1.7116  0.7505
17794THY    HP632159   6.657   7.554   1.885 -0.9718  0.7734 -2.3153
17794THY    HP732160   6.734   7.499   2.032  1.6854  1.2111  0.7173
17794THY    CA332161   6.893   7.648   2.212 -0.1249 -0.2886 -0.3853
17794THY    HA332162   6.803   7.614   2.261  0.8156  1.9445  0.1343
17794THY    CA432163   7.008   7.643   2.294  0.3963 -0.0442 -0.2335
17794THY    HA432164   7.003   7.609   2.397  0.8753  0.6753  1.7119
17794THY    CA532165   7.128   7.707   2.249 -0.6010 -0.9233  0.7512
17794THY    CM132166   7.245   7.716   2.351 -0.2429  0.5898  0.5540
17794THY    HM132167   7.219   7.702   2.457  3.2514  1.5456  0.2390
17794THY    HM232168   7.288   7.816   2.348 -2.1625  1.0383  1.4295
17794THY    HM332169   7.323   7.642   2.330 -2.2905  0.5589 -1.7162
17794THY    CA632170   7.137   7.767   2.125 -0.5090  0.6374  0.6565
17794THY    HA632171   7.228   7.809   2.084 -0.6645  0.1119  0.4823
17795THY      O32172   8.799   2.912   2.386  0.0972 -0.3769 -0.5941
17795THY     HO32173   8.798   3.009   2.396 -1.5238 -0.6819 -0.5476
17795THY    CA132174   8.908   2.878   2.308 -0.0296  0.5313 -0.7474
17795THY    CA232175   8.916   2.752   2.249 -0.8237 -0.1134  0.4703
17795THY    CP132176   8.804   2.651   2.272 -0.5898  0.6617 -0.3904
17795THY    HP132177   8.761   2.664   2.372  0.3152  1.2421 -1.6731
17795THY    CP232178   8.866   2.508   2.288 -0.3412 -0.5719  0.2840
17795THY    HP232179   8.800   2.439   2.343  0.2839 -0.7755 -0.4822
17795THY    HP332180   8.951   2.507   2.357 -2.3810  2.1296 -1.5133
17795THY    HP432181   8.900   2.466   2.193  1.2506 -1.0652  2.5255
17795THY    CP332182   8.709   2.661   2.158  1.1089 -0.0810  0.2580
17795THY    HP532183   8.676   2.763   2.134 -0.8825 -1.0189 -0.5587
17795THY    HP632184   8.622   2.597   2.175  1.9301 -1.3551 -1.2694
17795THY    HP732185   8.759   2.621   2.069  1.1158 -0.0627  0.2263
17795THY    CA332186   9.035   2.716   2.183  0.1017  0.1777 -0.3439
17795THY    HA332187   9.037   2.624   2.125  2.2708  0.5218 -0.5817
17795THY    CA432188   9.142   2.813   2.168  0.6358 -0.3432  0.5009
17795THY    HA432189   9.233   2.794   2.112 -0.0734 -1.9327  1.5548
17795THY    CA532190   9.123   2.943   2.227 -0.1549 -0.5634  0.5992
17795THY    CM132191   9.220   3.045   2.209 -0.2312 -0.4992  0.1372
17795THY    HM132192   9.191   3.119   2.134  3.3452  0.4010  2.7337
17795THY    HM232193   9.318   3.008   2.179  1.5570  0.8099  3.4096
17795THY    HM332194   9.240   3.115   2.292  0.2285 -1.2577  0.9262
17795THY    CA632195   9.016   2.966   2.306  0.1856 -0.5008  0.3085
17795THY    HA632196   9.013   3.068   2.345  0.5264 -1.3666  0.6599
17796THY      O32197   1.841   1.907   6.153 -1.1827  0.4206  0.2634
17796THY     HO32198   1.895   1.963   6.095 -1.3205  0.2801  0.2504
17796THY    CA132199   1.894   1.782   6.129 -0.4208 -0.2924 -0.4338
17796THY    CA232200   1.848   1.664   6.195  0.0433  0.2407 -0.4324
17796THY    CP132201   1.727   1.672   6.288  0.1458  0.1764  0.2732
17796THY    HP132202   1.694   1.777   6.286  1.0639 -3.0394  0.6093
17796THY    CP232203   1.755   1.614   6.431 -0.3931  0.5591 -0.3346
17796THY    HP232204   1.661   1.603   6.487 -1.4028 -1.5154 -3.3356
17796THY    HP332205   1.828   1.675   6.486 -0.8119  1.3506 -0.5353
17796THY    HP432206   1.801   1.515   6.424  1.4546 -1.4642  0.5964
17796THY    CP332207   1.603   1.599   6.225  0.6810 -0.6164 -0.1625
17796THY    HP532208   1.570   1.652   6.135 -0.2780 -0.8745 -1.1892
17796THY    HP632209   1.510   1.618   6.280 -0.3348 -2.7099  1.4258
17796THY    HP732210   1.620   1.491   6.217 -0.7332  1.7189 -0.6288
17796THY    CA332211   1.901   1.541   6.161 -0.3521 -0.4230  0.3991
17796THY    HA332212   1.857   1.446   6.192 -0.5295 -0.1473  0.5683
17796THY    CA432213   1.997   1.531   6.058  0.3625 -0.5772 -0.4388
17796THY    HA432214   2.040   1.432   6.046  3.0295  2.4478  0.2149
17796THY    CA532215   2.052   1.644   5.997 -0.1899 -0.5945  0.3158
17796THY    CM132216   2.162   1.639   5.895  0.4166 -0.0170 -0.6058
17796THY    HM132217   2.230   1.554   5.903  0.0783 -1.8166 -1.0841
17796THY    HM232218   2.200   1.740   5.876 -0.7156 -0.8146 -0.3159
17796THY    HM332219   2.113   1.619   5.799  1.1589 -0.4071 -0.5878
17796THY    CA632220   2.003   1.771   6.038  0.5519  0.4938  0.7372
17796THY    HA632221   2.036   1.863   5.991 -2.4930 -0.1053  1.6334
17797THY      O32222   6.179   2.240   7.407  0.0110 -0.3304  0.0058
17797THY     HO32223   6.144   2.154   7.434 -0.6591  1.6750  0.8517
17797THY    CA132224   6.073   2.306   7.376 -0.4426 -0.6197  0.4671
17797THY    CA232225   6.073   2.441   7.360 -0.0074 -0.1403 -0.1609
17797THY    CP132226   6.206   2.525   7.363  0.7317  0.4943 -0.3884
17797THY    HP132227   6.292   2.463   7.391  0.0453 -1.5969 -2.4563
17797THY    CP232228   6.200   2.651   7.448  0.7157  0.3527  0.2327
17797THY    HP232229   6.149   2.731   7.393 -0.3123  1.0165  0.0514
17797THY    HP332230   6.301   2.685   7.474  0.8261  0.9862 -0.5586
17797THY    HP432231   6.147   2.639   7.543 -3.0812 -1.4302  1.1498
17797THY    CP332232   6.260   2.576   7.222  0.5701  0.5892  0.0830
17797THY    HP532233   6.173   2.609   7.164 -0.8536  1.5945 -1.7294
17797THY    HP632234   6.295   2.487   7.168 -1.1173  1.0214 -0.8843
17797THY    HP732235   6.336   2.652   7.239 -1.7174  0.6288  2.5014
17797THY    CA332236   5.953   2.506   7.331  0.2048  0.2782 -0.6328
17797THY    HA332237   5.953   2.613   7.316  2.8679  1.0963 -0.4444
17797THY    CA432238   5.840   2.429   7.317 -0.1025  0.2758 -0.1821
17797THY    HA432239   5.750   2.475   7.276  0.5254 -1.5303 -0.4926
17797THY    CA532240   5.836   2.291   7.329  0.6188  0.2643 -0.7390
17797THY    CM132241   5.711   2.218   7.310  0.5859  0.3221 -0.1035
17797THY    HM132242   5.664   2.245   7.215  2.0209 -0.7051 -1.0218
17797THY    HM232243   5.633   2.255   7.378  0.0355 -0.2134 -0.2702
17797THY    HM332244   5.730   2.111   7.322 -1.0957  1.9916 -0.2607
17797THY    CA632245   5.957   2.229   7.355  0.2137 -0.0365 -0.1625
17797THY    HA632246   5.952   2.121   7.370  0.4665 -2.1156 -0.5115
17798THY      O32247   6.456   3.910   4.161 -0.0395 -0.0380  0.2044
17798THY     HO32248   6.459   3.817   4.135 -1.0482  0.1975  0.0932
17798THY    CA132249   6.459   3.968   4.037  0.1811 -0.9061 -0.2857
17798THY    CA232250   6.402   4.094   4.009  0.1464  0.0000  1.1669
17798THY    CP132251   6.333   4.176   4.120 -0.8419 -0.8469  0.7164
17798THY    HP132252   6.309   4.105   4.200  0.0981 -2.0619 -1.0407
17798THY    CP232253   6.199   4.240   4.080  0.0651 -0.1908 -0.6027
17798THY    HP232254   6.139   4.172   4.018 -0.5023 -0.4073  0.0701
17798THY    HP332255   6.217   4.329   4.018 -0.9817 -1.3890 -1.1710
17798THY    HP432256   6.150   4.276   4.171 -1.2414 -1.4746  1.0420
17798THY    CP332257   6.417   4.284   4.187 -0.2170 -0.0126 -0.0718
17798THY    HP532258   6.417   4.372   4.122  0.4205 -1.0646 -0.8242
17798THY    HP632259   6.520   4.248   4.195  0.2705 -0.9599  1.0333
17798THY    HP732260   6.380   4.322   4.282 -0.5479 -0.1291 -0.0952
17798THY    CA332261   6.416   4.154   3.884 -0.3395  0.5226 -0.5786
17798THY    HA332262   6.383   4.255   3.859  1.3145  0.8000  0.0635
17798THY    CA432263   6.493   4.086   3.785 -0.4499  0.3277 -0.0448
17798THY    HA432264   6.516   4.135   3.691 -0.5720  0.3470  0.0509
17798THY    CA532265   6.553   3.961   3.813 -0.2593 -0.0355 -0.1430
17798THY    CM132266   6.622   3.886   3.709  0.3870  0.2309  0.0196
17798THY    HM132267   6.565   3.797   3.679 -1.8940  0.5494  1.3012
17798THY    HM232268   6.721   3.865   3.749 -0.2250  1.0578 -1.4458
17798THY    HM332269   6.627   3.948   3.618 -1.2295  0.2893  0.2977
17798THY    CA632270   6.530   3.903   3.935 -0.2157 -0.8705 -0.0639
17798THY    HA632271   6.571   3.806   3.959 -0.7356 -2.5590 -0.7370
17799THY      O32272   3.606   3.460   6.472 -0.0541 -0.1420  0.0225
17799THY     HO32273   3.581   3.545   6.432 -0.0332  0.9890  0.5844
17799THY    CA132274   3.738   3.465   6.503  0.3907  0.5846 -0.6171
17799THY    CA232275   3.828   3.393   6.420 -0.9511 -0.3489 -0.2783
17799THY    CP132276   3.770   3.293   6.316  0.7609  0.1581 -0.3845
17799THY    HP132277   3.682   3.341   6.272 -0.2168  2.7342  0.3868
17799THY    CP232278   3.720   3.164   6.378  0.1789  0.4926  0.0292
17799THY    HP232279   3.796   3.110   6.436  0.7422  1.1303  1.4611
17799THY    HP332280   3.689   3.112   6.286 -1.1311  0.2630  1.1764
17799THY    HP432281   3.634   3.190   6.441 -0.0608  0.4627 -0.6684
17799THY    CP332282   3.865   3.264   6.195  0.4609 -0.4210 -0.5201
17799THY    HP532283   3.955   3.209   6.223  0.6401 -0.5317 -0.2836
17799THY    HP632284   3.898   3.365   6.168 -0.5376  2.3422  0.6450
17799THY    HP732285   3.807   3.216   6.115  0.4412 -0.1313 -0.9887
17799THY    CA332286   3.969   3.392   6.440  0.7865  0.2745  1.2312
17799THY    HA332287   4.036   3.338   6.375 -2.6903 -3.0288  0.4560
17799THY    CA432288   4.012   3.461   6.548 -0.4186  0.0313  0.4946
17799THY    HA432289   4.119   3.467   6.564 -0.2911 -0.4019 -0.4518
17799THY    CA532290   3.927   3.541   6.632  0.6779 -0.0129  0.7949
17799THY    CM132291   3.986   3.630   6.741 -0.1134  0.2280  0.3695
17799THY    HM132292   4.091   3.615   6.768  1.0608 -3.6898  0.4804
17799THY    HM232293   3.917   3.626   6.826 -0.5038 -0.0847  0.4044
17799THY    HM332294   3.994   3.731   6.700  0.1260  2.1931  1.1881
17799THY    CA632295   3.791   3.547   6.603  0.4569 -0.4267  0.5209
17799THY    HA632296   3.729   3.597   6.677  2.0829  0.9148  0.5992
17800THY      O32297   2.987   0.599   2.564 -0.6922  0.9990  0.2288
17800THY     HO32298   2.946   0.680   2.530  0.2835  1.5918  0.9872
17800THY    CA132299   3.119   0.625   2.543 -0.1504  0.0722  0.1847
17800THY    CA232300   3.217   0.523   2.533  0.7832 -0.7417  0.1771
17800THY    CP132301   3.180   0.378   2.520  0.8157 -0.5089 -0.2563
17800THY    HP132302   3.084   0.372   2.467  0.4442 -0.1748  2.0586
17800THY    CP232303   3.146   0.324   2.661  0.4056 -0.2576 -0.1296
17800THY    HP232304   3.108   0.222   2.649  1.1623 -0.9735 -0.3362
17800THY    HP332305   3.069   0.385   2.711  0.2053  0.4946 -0.9566
17800THY    HP432306   3.234   0.341   2.724  1.3846 -1.9896  1.6137
17800THY    CP332307   3.268   0.283   2.445  0.3879 -0.2264  0.4066
17800THY    HP532308   3.331   0.335   2.372  0.0969 -1.4563 -0.9020
17800THY    HP632309   3.214   0.208   2.386  1.5849  0.5770 -1.1718
17800THY    HP732310   3.337   0.235   2.516 -0.1246  0.0988  0.1529
17800THY    CA332311   3.347   0.549   2.533 -0.0607 -0.0289 -0.2119
17800THY    HA332312   3.417   0.467   2.522  0.6465 -1.0837  0.5085
17800THY    CA432313   3.395   0.682   2.528 -0.8373 -0.6010 -0.2896
17800THY    HA432314   3.502   0.697   2.526 -0.5416  1.4850 -1.6851
17800THY    CA532315   3.299   0.786   2.548 -1.2154 -0.3173 -0.6763
17800THY    CM132316   3.344   0.931   2.560 -0.5823 -0.6747  0.6378
17800THY    HM132317   3.282   0.997   2.497  0.6989  0.6162  3.2310
17800THY    HM232318   3.447   0.944   2.525 -0.9044 -2.1987 -0.5799
17800THY    HM332319   3.322   0.978   2.657  1.3018 -0.6679  1.6000
17800THY    CA632320   3.162   0.759   2.554 -0.2966 -0.3240  0.2109
17800THY    HA632321   3.091   0.831   2.595  0.3989  0.4352  0.4817
17801THY      O32322   7.616   5.319   3.231  0.2978 -0.1010  0.4455
17801THY     HO32323   7.543   5.308   3.294 -0.0239 -0.7564 -1.5812
17801THY    CA132324   7.543   5.362   3.121 -0.3143 -0.2977 -0.1171
17801THY    CA232325   7.595   5.379   2.990 -0.5852  1.0226  0.5730
17801THY    CP132326   7.739   5.340   2.942  0.0802 -0.2635 -1.1365
17801THY    HP132327   7.793   5.307   3.032  1.2299 -0.5382 -0.0895
17801THY    CP232328   7.814   5.472   2.910  0.4447  0.1245  0.4977
17801THY    HP232329   7.774   5.513   2.817 -0.4018 -0.4474 -1.5097
17801THY    HP332330   7.920   5.446   2.892  0.7244  0.5717  1.3128
17801THY    HP432331   7.804   5.542   2.993  2.5773 -0.0481  1.0784
17801THY    CP332332   7.742   5.234   2.833  0.2974  0.3208  0.2950
17801THY    HP532333   7.680   5.147   2.855  0.3991 -1.7885 -0.3891
17801THY    HP632334   7.840   5.187   2.817 -0.0140 -1.5410  0.1991
17801THY    HP732335   7.701   5.273   2.739  0.1633 -0.1116 -0.8321
17801THY    CA332336   7.508   5.421   2.892  1.0490 -0.2587  0.0304
17801THY    HA332337   7.542   5.424   2.789  1.2171 -0.1808  1.2542
17801THY    CA432338   7.375   5.476   2.929 -0.7086  0.0383 -0.7280
17801THY    HA432339   7.316   5.529   2.854  1.5401  0.8448  3.3816
17801THY    CA532340   7.333   5.475   3.056  0.0428  0.4124 -0.3335
17801THY    CM132341   7.199   5.556   3.089 -0.2635 -0.0899  1.0326
17801THY    HM132342   7.168   5.539   3.193 -0.0098 -0.3445 -1.4685
17801THY    HM232343   7.119   5.536   3.016 -1.4317  0.8789  2.0073
17801THY    HM332344   7.225   5.662   3.082  2.2857  2.6056  0.6959
17801THY    CA632345   7.419   5.416   3.152  0.2630  0.2309 -0.1983
17801THY    HA632346   7.388   5.423   3.256  2.0194  0.9534 -2.1816
17802THY      O32347   1.686   5.757   4.009 -0.1754 -0.0166 -0.2868
17802THY     HO32348   1.625   5.692   4.046 -0.3495  1.0774  0.4519
17802THY    CA132349   1.811   5.706   4.008 -0.3488  0.4813 -0.4772
17802THY    CA232350   1.919   5.790   3.985  0.4653  0.2693 -0.0196
17802THY    CP132351   1.917   5.946   3.977 -0.8434  0.6343 -0.2690
17802THY    HP132352   1.810   5.971   3.975 -0.5849 -0.7189  0.8198
17802THY    CP232353   1.995   6.018   3.870 -0.3926  0.5666 -0.1504
17802THY    HP232354   1.975   6.126   3.878 -2.2010  1.6306 -0.5347
17802THY    HP332355   1.966   5.983   3.770 -2.9398  0.9586  0.6781
17802THY    HP432356   2.104   6.005   3.879 -0.6655  1.0615 -2.6367
17802THY    CP332357   1.972   6.008   4.106  0.1659 -0.3905 -0.4217
17802THY    HP532358   1.952   6.115   4.097  1.2053  2.1343  0.0723
17802THY    HP632359   2.081   6.002   4.118  0.2370 -0.4995  0.4676
17802THY    HP732360   1.933   5.960   4.197  2.9104  0.3886 -1.3990
17802THY    CA332361   2.044   5.723   3.986 -0.1240  0.0086 -0.0585
17802THY    HA332362   2.134   5.784   3.982 -1.3445 -4.9097  1.8983
17802THY    CA432363   2.055   5.584   4.009  0.1013 -0.9034 -0.4648
17802THY    HA432364   2.154   5.539   4.006 -0.9219 -0.0914 -2.9485
17802THY    CA532365   1.942   5.500   4.029  0.0177  0.4622 -0.7206
17802THY    CM132366   1.942   5.357   4.062 -0.6694 -0.0416 -0.2209
17802THY    HM132367   1.845   5.306   4.066  0.0008  1.6696 -1.4533
17802THY    HM232368   1.997   5.355   4.157  1.5392 -1.2390 -0.3166
17802THY    HM332369   1.995   5.298   3.986 -0.4565 -2.4145  2.8249
17802THY    CA632370   1.815   5.565   4.022  0.3303 -0.3325 -0.1721
17802THY    HA632371   1.726   5.503   4.028 -0.4889  2.2187  1.1193
17803THY      O32372   5.534   9.082   4.595 -0.0226  0.2433  0.3313
17803THY     HO32373   5.552   9.176   4.574 -0.2780 -2.0022 -0.0858
17803THY    CA132374   5.614   9.010   4.522 -0.7180 -0.3654  0.0905
17803THY    CA232375   5.687   8.888   4.562  0.4899  0.2437 -0.0054
17803THY    CP132376   5.688   8.839   4.711 -0.2773  0.1054 -0.4874
17803THY    HP132377   5.654   8.922   4.773  0.4594  0.9899 -0.8401
17803THY    CP232378   5.825   8.801   4.767 -0.0793  0.0161  0.0278
17803THY    HP232379   5.836   8.830   4.872  0.9348 -0.1271  0.1818
17803THY    HP332380   5.896   8.868   4.717  0.1629  0.0937 -0.1722
17803THY    HP432381   5.857   8.697   4.758  2.0130 -0.6888  0.6746
17803THY    CP332382   5.596   8.724   4.727 -0.1895 -0.1281 -0.4416
17803THY    HP532383   5.613   8.679   4.826  0.4272 -0.4614 -0.9771
17803THY    HP632384   5.614   8.637   4.663  1.0235 -1.0252  0.4313
17803THY    HP732385   5.495   8.764   4.715 -0.4846  1.2053 -0.7519
17803THY    CA332386   5.763   8.814   4.474  0.4112  0.3968  0.7402
17803THY    HA332387   5.816   8.725   4.507  0.6163 -1.7718  0.0009
17803THY    CA432388   5.784   8.869   4.346 -0.0780 -0.0437  0.3320
17803THY    HA432389   5.850   8.818   4.277  0.1108  0.5734 -0.2649
17803THY    CA532390   5.724   8.989   4.309  0.2553 -0.5428  0.2988
17803THY    CM132391   5.754   9.051   4.182 -0.9882  0.4377 -0.2360
17803THY    HM132392   5.861   9.075   4.182  0.2005 -1.4310 -4.6622
17803THY    HM232393   5.709   9.152   4.178 -2.5577 -1.0132 -0.9424
17803THY    HM332394   5.720   8.993   4.096  1.1186 -1.5057  1.2315
17803THY    CA632395   5.633   9.059   4.397  0.0383  0.3979 -0.0702
17803THY    HA632396   5.580   9.149   4.368  0.3026  0.4116  0.0897
17804THY      O32397   1.577   1.140   7.246 -0.2714 -0.1675  0.5994
17804THY     HO32398   1.588   1.233   7.271  1.6331 -0.0849  0.3958
17804THY    CA132399   1.625   1.075   7.356  0.0416  0.3742  0.1825
17804THY    CA232400   1.685   0.944   7.350  0.0123 -0.1932 -0.4371
17804THY    CP132401   1.684   0.859   7.216  0.0661 -0.6351 -0.0789
17804THY    HP132402   1.604   0.903   7.154  0.3435  0.5094  2.1986
17804THY    CP232403   1.628   0.710   7.245 -0.3605  0.7006 -0.4166
17804THY    HP232404   1.610   0.666   7.147 -0.9786  0.5732  0.1047
17804THY    HP332405   1.536   0.709   7.305 -1.1683 -0.4694  1.0176
17804THY    HP432406   1.711   0.645   7.276 -0.3252 -0.6334 -1.0234
17804THY    CP332407   1.817   0.860   7.139 -0.1720  0.1685 -0.2405
17804THY    HP532408   1.890   0.797   7.190 -0.1189  0.7222  0.2599
17804THY    HP632409   1.847   0.964   7.152 -1.9455 -0.2693  0.3712
17804THY    HP732410   1.804   0.840   7.032 -0.1544  0.4928 -2.1245
17804THY    CA332411   1.726   0.888   7.473  0.5189 -0.3277 -0.1288
17804THY    HA332412   1.757   0.784   7.469 -0.5928  1.7973 -0.5935
17804THY    CA432413   1.697   0.946   7.596 -0.2432 -0.7858  0.4594
17804THY    HA432414   1.721   0.898   7.691 -0.1469 -1.6302 -1.2543
17804THY    CA532415   1.640   1.075   7.598  0.3014 -0.4487  0.4671
17804THY    CM132416   1.622   1.151   7.723 -0.1056 -0.5473  0.4227
17804THY    HM132417   1.688   1.108   7.799 -0.0524 -0.6866  0.2574
17804THY    HM232418   1.519   1.152   7.760  0.4850  1.2040  0.0438
17804THY    HM332419   1.656   1.256   7.721  3.7547  0.4550 -0.6733
17804THY    CA632420   1.604   1.135   7.476  0.1154 -0.6270 -1.1822
17804THY    HA632421   1.572   1.238   7.489  1.5055  1.0879 -0.9266
17805THY      O32422   3.075   4.380   4.043 -0.5679  0.5065 -0.0502
17805THY     HO32423   3.038   4.295   4.071  1.5009  1.5610 -0.6691
17805THY    CA132424   2.986   4.464   4.097  0.0339  0.3673 -0.1787
17805THY    CA232425   3.020   4.591   4.119 -0.2926 -0.9275 -0.7141
17805THY    CP132426   3.157   4.647   4.076  0.7061 -0.3784  0.4533
17805THY    HP132427   3.188   4.584   3.991  2.1053  2.4188 -2.9550
17805THY    CP232428   3.254   4.630   4.187  0.1271 -0.0749  0.2755
17805THY    HP232429   3.212   4.629   4.287  1.3213  0.4500 -0.7600
17805THY    HP332430   3.331   4.709   4.191  0.3106  0.0051  0.0944
17805THY    HP432431   3.308   4.535   4.180 -0.4758  0.7928 -0.1353
17805THY    CP332432   3.155   4.791   4.028  0.2088  0.4805 -0.1891
17805THY    HP532433   3.177   4.854   4.115 -0.3122  1.0296 -0.7485
17805THY    HP632434   3.066   4.831   3.979  1.2577 -0.3400  1.2206
17805THY    HP732435   3.237   4.816   3.960  0.2226  1.3835  2.5535
17805THY    CA332436   2.919   4.679   4.166  0.0376  0.8404 -0.1978
17805THY    HA332437   2.943   4.785   4.164  0.3894  1.8033 -0.2510
17805THY    CA432438   2.803   4.629   4.213  0.8249  0.2665  0.0952
17805THY    HA432439   2.733   4.701   4.256  2.3220 -0.2487  1.9334
17805THY    CA532440   2.782   4.493   4.219 -0.8531  0.3032 -0.1626
17805THY    CM132441   2.660   4.422   4.288  0.1396  0.1526  0.2298
17805THY    HM132442   2.678   4.314   4.296 -2.3246  3.3739 -0.1207
17805THY    HM232443   2.570   4.434   4.226 -0.9710  1.9606  1.9677
17805THY    HM332444   2.628   4.462   4.385  1.0820  0.7527 -0.4276
17805THY    CA632445   2.875   4.414   4.162  0.0934  0.2342  0.4753
17805THY    HA632446   2.852   4.308   4.156 -0.8119  0.8405  0.6325
17806THY      O32447   1.927   8.199   3.344  0.3559 -0.0028  0.6900
17806THY     HO32448   1.954   8.283   3.387  0.4707  3.6516 -1.0188
17806THY    CA132449   2.018   8.102   3.367  0.6308  0.5560  0.4533
17806THY    CA232450   1.977   7.972   3.405 -0.2021 -0.1115  0.3918
17806THY    CP132451   1.833   7.947   3.433  1.4322  0.4439  0.5437
17806THY    HP132452   1.760   8.010   3.382 -0.5691  2.2979 -0.1859
17806THY    CP232453   1.791   7.977   3.576  0.1187  0.1107  0.1857
17806THY    HP232454   1.681   7.977   3.582  0.1527  1.1426  1.6009
17806THY    HP332455   1.829   8.075   3.607 -0.2824 -3.2210  1.5246
17806THY    HP432456   1.827   7.905   3.651 -2.8283  0.3319 -1.2089
17806THY    CP332457   1.788   7.811   3.383  0.3322  0.4884 -0.3714
17806THY    HP532458   1.849   7.724   3.408  0.6289 -0.6165 -0.5008
17806THY    HP632459   1.807   7.820   3.276  4.0250  1.1743  2.0559
17806THY    HP732460   1.682   7.790   3.402  0.0038  1.3759  1.7357
17806THY    CA332461   2.081   7.880   3.431  0.5213 -0.0251  0.1573
17806THY    HA332462   2.045   7.788   3.476 -0.8128 -0.5473  0.3970
17806THY    CA432463   2.220   7.916   3.421 -0.6746  0.5303  0.1939
17806THY    HA432464   2.298   7.844   3.446 -2.8453  0.7254 -2.2526
17806THY    CA532465   2.244   8.045   3.372 -0.3898  0.0200  0.5141
17806THY    CM132466   2.390   8.087   3.353 -0.0475 -0.8306 -0.2635
17806THY    HM132467   2.417   8.117   3.251  3.6940  0.1234  0.1165
17806THY    HM232468   2.462   8.005   3.358 -0.5657  0.5889 -0.6685
17806THY    HM332469   2.419   8.162   3.428 -0.9347 -0.9535  0.2175
17806THY    CA632470   2.141   8.132   3.339 -0.1149  0.0486 -0.1655
17806THY    HA632471   2.166   8.226   3.293  0.3810  0.2406 -0.2005
17807THY      O32472   8.633   1.903   4.371  0.1348 -0.1897  0.4500
17807THY     HO32473   8.578   1.944   4.440 -0.2725 -1.5631  2.3138
17807THY    CA132474   8.546   1.831   4.295  0.3349  0.5607  0.0678
17807THY    CA232475   8.599   1.740   4.204 -0.3583 -0.2542 -0.2163
17807THY    CP132476   8.748   1.719   4.178 -0.2698 -1.0208  0.3166
17807THY    HP132477   8.808   1.752   4.264  3.0822 -2.8564 -0.5821
17807THY    CP232478   8.801   1.794   4.065 -0.8199  0.1724  0.2591
17807THY    HP232479   8.747   1.761   3.975  0.3767 -0.1693 -0.8377
17807THY    HP332480   8.901   1.757   4.037 -0.1574  1.1985  1.2108
17807THY    HP432481   8.800   1.903   4.078 -2.1405 -0.2171  0.3052
17807THY    CP332482   8.779   1.565   4.167 -0.0064 -0.7592 -0.0015
17807THY    HP532483   8.769   1.539   4.061  0.3790 -0.6691 -0.5302
17807THY    HP632484   8.705   1.511   4.227 -1.2611 -2.5130 -0.3170
17807THY    HP732485   8.879   1.549   4.210  0.2327 -0.3453  2.2678
17807THY    CA332486   8.508   1.680   4.115  0.3496  0.0597  0.1835
17807THY    HA332487   8.551   1.616   4.038  0.9778 -0.6384  1.3889
17807THY    CA432488   8.375   1.703   4.122 -0.2621 -0.5080 -1.0370
17807THY    HA432489   8.301   1.662   4.055  0.7532 -2.5748  0.3520
17807THY    CA532490   8.325   1.786   4.226  0.8620 -0.2679  1.3453
17807THY    CM132491   8.180   1.810   4.242 -0.6648  0.0192  0.7557
17807THY    HM132492   8.133   1.784   4.338 -0.9172  0.9441  4.1130
17807THY    HM232493   8.114   1.785   4.158 -0.1719  0.0822 -0.8360
17807THY    HM332494   8.179   1.920   4.231  0.5912  1.3269  0.9206
17807THY    CA632495   8.409   1.854   4.317 -0.0326 -0.5646 -0.0963
17807THY    HA632496   8.364   1.920   4.390 -0.9229 -1.9765  0.9263
17808THY      O32497   4.760   3.338   1.862 -0.3243 -0.5410  0.3013
17808THY     HO32498   4.682   3.280   1.872 -0.3068  1.3262  0.5473
17808THY    CA132499   4.846   3.290   1.958  0.8848  0.1032 -0.1722
17808THY    CA232500   4.922   3.376   2.048  0.3839  0.5546  0.5089
17808THY    CP132501   4.922   3.529   2.027 -0.2029 -0.8671 -0.2784
17808THY    HP132502   4.828   3.563   1.981 -0.7796  0.5340  0.1062
17808THY    CP232503   5.035   3.572   1.934  0.1219 -0.1130 -0.5604
17808THY    HP232504   4.996   3.542   1.836 -1.1317  0.2756 -0.2359
17808THY    HP332505   5.130   3.517   1.943 -0.0377  0.1065 -0.8008
17808THY    HP432506   5.049   3.681   1.945  0.2463 -1.0627 -0.4726
17808THY    CP332507   4.929   3.607   2.157  0.0443  0.4981 -0.3051
17808THY    HP532508   5.034   3.618   2.185  0.9953 -1.9435 -2.3382
17808THY    HP632509   4.874   3.565   2.242  0.1530 -0.3848 -2.3125
17808THY    HP732510   4.883   3.707   2.152 -2.5135  1.3240 -1.3505
17808THY    CA332511   5.001   3.322   2.152  0.8310 -0.6207 -0.5650
17808THY    HA332512   5.057   3.379   2.225 -0.6220 -0.7326  1.0791
17808THY    CA432513   5.005   3.181   2.157 -0.2639  0.6862 -0.4294
17808THY    HA432514   5.076   3.129   2.220 -0.8630  0.8529 -1.0545
17808THY    CA532515   4.934   3.100   2.075  0.5158  0.2666 -0.1878
17808THY    CM132516   4.941   2.953   2.096  0.2607  0.5212  0.2435
17808THY    HM132517   4.836   2.924   2.110  0.4797 -0.3925 -1.0962
17808THY    HM232518   4.984   2.913   2.188  0.2371  0.3076 -0.2705
17808THY    HM332519   4.971   2.895   2.008  0.3794 -0.1898  1.3507
17808THY    CA632520   4.848   3.153   1.986  0.0211  0.1470 -0.2277
17808THY    HA632521   4.791   3.089   1.919 -2.7262  1.0327  1.1314
17809THY      O32522   8.676   8.721   3.483  0.2975 -0.4708  0.0481
17809THY     HO32523   8.759   8.698   3.438  2.3603  2.5008  1.0621
17809THY    CA132524   8.680   8.657   3.610  1.2265  0.5367 -0.4524
17809THY    CA232525   8.583   8.674   3.706  0.5376 -0.1121 -0.2083
17809THY    CP132526   8.451   8.754   3.682  0.3542 -0.0912  0.4443
17809THY    HP132527   8.472   8.834   3.610 -2.9466  1.3309  2.8377
17809THY    CP232528   8.409   8.826   3.824  0.4612  0.6185 -0.4041
17809THY    HP232529   8.325   8.888   3.790  0.6499  1.0605  0.0920
17809THY    HP332530   8.481   8.890   3.876  0.2504 -0.5660  0.8256
17809THY    HP432531   8.376   8.752   3.898  0.8947  1.5594  0.3254
17809THY    CP332532   8.335   8.670   3.627  0.5036 -0.0254  0.0634
17809THY    HP532533   8.360   8.639   3.525 -1.5826 -1.1582  1.8424
17809THY    HP632534   8.240   8.725   3.621 -0.1458 -0.8091 -1.1130
17809THY    HP732535   8.326   8.583   3.693  2.5204  1.1341  0.6569
17809THY    CA332536   8.575   8.577   3.812  0.0257 -0.3709 -0.9754
17809THY    HA332537   8.491   8.574   3.881 -0.7579 -1.1478  1.4193
17809THY    CA432538   8.681   8.488   3.833 -0.1728  0.2299 -0.3532
17809THY    HA432539   8.670   8.412   3.909 -3.0414 -1.2454 -1.5542
17809THY    CA532540   8.786   8.485   3.744 -0.1513  0.8293  0.0806
17809THY    CM132541   8.886   8.380   3.760 -0.1757  0.2388  0.3173
17809THY    HM132542   8.900   8.351   3.865  1.1357 -0.2255 -0.8008
17809THY    HM232543   8.975   8.407   3.703 -0.3050  0.2770  0.8318
17809THY    HM332544   8.849   8.292   3.706 -1.0001  1.1903  0.0498
17809THY    CA632545   8.781   8.562   3.624 -0.4270 -0.5259 -0.5352
17809THY    HA632546   8.861   8.557   3.550 -0.8809 -1.1159  0.5137
17810THY      O32547   5.227   0.648   5.068  0.1850 -0.6073 -0.0893
17810THY     HO32548   5.284   0.692   5.133  1.9456 -1.2180 -1.3117
17810THY    CA132549   5.178   0.750   5.004  0.5600  0.3080 -0.8196
17810THY    CA232550   5.048   0.741   4.948  0.2176 -0.3718  0.1365
17810THY    CP132551   4.975   0.606   4.950 -0.2895 -0.0519  0.2286
17810THY    HP132552   5.025   0.527   5.008 -3.1478  2.0535 -0.1715
17810THY    CP232553   4.954   0.560   4.798 -0.1380 -0.6464  0.0590
17810THY    HP232554   4.881   0.478   4.791 -3.3333 -1.4341  2.7689
17810THY    HP332555   5.046   0.513   4.762  0.2010 -0.9538  0.9508
17810THY    HP432556   4.931   0.644   4.731 -1.4466  0.3885  0.5709
17810THY    CP332557   4.834   0.617   5.017 -0.3918  0.4871 -0.7480
17810THY    HP532558   4.777   0.694   4.965  0.2534 -0.9423 -1.1909
17810THY    HP632559   4.843   0.637   5.124 -0.0488  0.0131  1.9929
17810THY    HP732560   4.778   0.525   4.997 -0.2490 -2.3875 -0.3269
17810THY    CA332561   4.989   0.862   4.903  0.5464  0.5185 -0.1811
17810THY    HA332562   4.887   0.856   4.865  0.5880  0.5979 -1.6869
17810THY    CA432563   5.052   0.985   4.916  0.9098  0.0726  0.3126
17810THY    HA432564   4.994   1.070   4.880  0.4632  0.1028  0.0231
17810THY    CA532565   5.186   0.999   4.974  0.0237  0.2415 -0.2596
17810THY    CM132566   5.250   1.133   4.996  0.3350  0.1658 -0.7895
17810THY    HM132567   5.188   1.216   5.032  1.5960  0.0204  0.2485
17810THY    HM232568   5.320   1.154   4.914 -0.4666 -0.3818 -0.2113
17810THY    HM332569   5.317   1.115   5.081  1.4739 -0.0806  1.8244
17810THY    CA632570   5.245   0.879   5.018 -0.7429 -0.5173  1.2606
17810THY    HA632571   5.338   0.880   5.074 -0.1147 -1.5015  0.1718
17811THY      O32572   4.312   4.200   3.632 -0.0101  0.6768  0.3741
17811THY     HO32573   4.295   4.180   3.726 -1.0768  0.3590 -0.2804
17811THY    CA132574   4.364   4.099   3.566 -0.2290 -0.2883  0.6405
17811THY    CA232575   4.392   4.107   3.426  0.7068 -0.8833  0.6161
17811THY    CP132576   4.348   4.227   3.342 -0.3310  0.1614 -0.1471
17811THY    HP132577   4.311   4.304   3.411 -0.2838 -0.5188  0.4951
17811THY    CP232578   4.232   4.198   3.256  0.5056  0.3810 -0.5369
17811THY    HP232579   4.243   4.108   3.195  0.1826  0.5827 -0.7167
17811THY    HP332580   4.213   4.286   3.192  0.8198  0.2083 -0.5961
17811THY    HP432581   4.152   4.173   3.327  1.3857  1.5510 -0.1017
17811THY    CP332582   4.475   4.295   3.272  0.3227 -0.3351  0.6854
17811THY    HP532583   4.539   4.218   3.229  1.1256  1.3583  0.3696
17811THY    HP632584   4.530   4.334   3.359  1.2859 -0.3975 -0.4783
17811THY    HP732585   4.455   4.381   3.206  1.0109 -1.7535 -0.1988
17811THY    CA332586   4.446   3.999   3.357  0.2907  0.1679  0.0597
17811THY    HA332587   4.455   4.005   3.249 -4.2714 -0.3910  0.4651
17811THY    CA432588   4.477   3.884   3.431 -0.3202 -0.2660 -0.1706
17811THY    HA432589   4.521   3.801   3.376  1.6015  0.3669  0.3690
17811THY    CA532590   4.450   3.877   3.567  0.2947  0.1937 -0.4216
17811THY    CM132591   4.484   3.753   3.637  0.5969 -0.7997 -0.5112
17811THY    HM132592   4.471   3.769   3.744 -2.2250 -1.5319  3.6840
17811THY    HM232593   4.587   3.738   3.601  0.3840 -1.6582  0.0065
17811THY    HM332594   4.419   3.669   3.611 -1.6308  1.9093  0.2579
17811THY    CA632595   4.385   3.979   3.637 -0.6489  0.4381  0.3677
17811THY    HA632596   4.367   3.973   3.744 -1.0715  0.3645  0.2979
17812THY      O32597   8.468   5.026   4.321  0.1060 -0.6428 -0.3781
17812THY     HO32598   8.426   4.943   4.293 -0.8795 -1.6088  0.4320
17812THY    CA132599   8.421   5.111   4.224  0.6000 -0.8743  0.0524
17812THY    CA232600   8.503   5.163   4.128 -0.7062  0.1030 -0.5137
17812THY    CP132601   8.650   5.118   4.117  0.4058  0.0597  0.5542
17812THY    HP132602   8.690   5.103   4.218 -0.1037 -0.1303 -3.1130
17812THY    CP232603   8.754   5.213   4.056  0.0156 -0.5152  0.5816
17812THY    HP232604   8.717   5.254   3.961 -2.9915 -0.2379 -1.1803
17812THY    HP332605   8.852   5.164   4.052 -0.5024 -0.5875 -0.4807
17812THY    HP432606   8.757   5.300   4.122 -3.0522  0.7821 -0.1806
17812THY    CP332607   8.655   4.971   4.070  0.2327 -0.1487  0.1316
17812THY    HP532608   8.748   4.921   4.099 -0.9186  0.1031 -1.9438
17812THY    HP632609   8.630   4.956   3.964  0.6981 -0.5705  1.9985
17812THY    HP732610   8.575   4.913   4.117  0.7059  0.2670 -0.1976
17812THY    CA332611   8.446   5.256   4.034 -0.4030 -0.6529 -0.4757
17812THY    HA332612   8.502   5.309   3.958 -2.0926  0.0564  2.5564
17812THY    CA432613   8.310   5.287   4.037  0.1021 -0.1733 -0.4497
17812THY    HA432614   8.275   5.362   3.967  1.3964  1.7959  2.1338
17812THY    CA532615   8.225   5.225   4.129  0.3943  0.2347 -0.3518
17812THY    CM132616   8.080   5.239   4.124  0.4919 -0.1127 -0.0121
17812THY    HM132617   8.039   5.326   4.071 -2.7211  0.0938 -1.2426
17812THY    HM232618   8.043   5.258   4.226  0.3574 -0.2820  0.6501
17812THY    HM332619   8.032   5.152   4.078  0.4742 -0.3154  0.1045
17812THY    CA632620   8.283   5.133   4.214 -0.4689 -0.6200  0.0585
17812THY    HA632621   8.219   5.076   4.280 -0.1350  0.1962  0.6028
17813THY      O32622   6.684   6.557   5.405 -0.3694  0.2013 -0.2649
17813THY     HO32623   6.775   6.583   5.430 -0.2179  0.6332 -1.1930
17813THY    CA132624   6.670   6.574   5.278  0.1293  0.3372 -0.0596
17813THY    CA232625   6.548   6.551   5.219 -0.4713 -0.6825  0.2293
17813THY    CP132626   6.430   6.493   5.297 -0.7044 -0.2806  0.0793
17813THY    HP132627   6.461   6.443   5.390 -0.2048  0.1541  1.1476
17813THY    CP232628   6.345   6.381   5.230  0.7844 -0.9820 -0.2648
17813THY    HP232629   6.410   6.300   5.197  2.0305  0.3745  0.1250
17813THY    HP332630   6.298   6.411   5.136 -0.9828 -0.3114 -0.8495
17813THY    HP432631   6.276   6.342   5.305  1.5127 -0.1225  0.0546
17813THY    CP332632   6.341   6.610   5.350  0.0545  0.0109 -0.1581
17813THY    HP532633   6.414   6.664   5.413  0.1174  0.8608 -1.2128
17813THY    HP632634   6.257   6.587   5.416 -0.7961 -0.5378  1.2495
17813THY    HP732635   6.313   6.664   5.259  2.8639 -1.3318 -0.7327
17813THY    CA332636   6.533   6.565   5.085 -0.6450  0.9607 -0.1181
17813THY    HA332637   6.437   6.563   5.035  0.1035 -0.5391 -1.3819
17813THY    CA432638   6.648   6.605   5.008 -0.2448 -0.3069  0.0501
17813THY    HA432639   6.635   6.622   4.902 -0.2660 -0.6438 -1.8056
17813THY    CA532640   6.780   6.616   5.069  0.2541  0.8054  0.8570
17813THY    CM132641   6.910   6.637   4.995 -0.5522  0.7523 -0.4117
17813THY    HM132642   6.970   6.719   5.034  0.0195 -0.6663 -0.1137
17813THY    HM232643   6.882   6.638   4.889  0.3407  0.5043 -0.5330
17813THY    HM332644   6.975   6.551   5.016 -1.6144  0.3420 -1.3342
17813THY    CA632645   6.784   6.603   5.207 -0.6279  0.2741 -0.1059
17813THY    HA632646   6.881   6.608   5.256 -0.7566  0.5272 -0.1163
17814THY      O32647   3.255   3.613   4.973 -0.3837  0.0952  0.4953
17814THY     HO32648   3.314   3.671   4.921  1.2167  1.1650 -0.1079
17814THY    CA132649   3.155   3.600   4.887  0.5187  0.7045  0.4439
17814THY    CA232650   3.038   3.526   4.914 -0.0594  0.6801 -0.4338
17814THY    CP132651   3.023   3.453   5.049 -0.1309 -0.1807 -0.3547
17814THY    HP132652   3.122   3.410   5.070  0.8483 -0.4840  1.6588
17814THY    CP232653   2.925   3.338   5.041  0.1089 -0.2638 -0.4515
17814THY    HP232654   2.827   3.369   5.004  1.3015 -2.5535  0.8415
17814THY    HP332655   2.905   3.304   5.143 -1.0729 -0.4942 -0.4950
17814THY    HP432656   2.963   3.271   4.963  0.7841 -1.2944  1.0638
17814THY    CP332657   2.979   3.551   5.165  0.0141 -0.7603 -0.3598
17814THY    HP532658   2.920   3.511   5.249  0.0938 -0.6198 -0.1860
17814THY    HP632659   2.899   3.609   5.117 -0.8976 -0.6074 -1.4710
17814THY    HP732660   3.064   3.609   5.202 -0.5617  1.8626 -1.0652
17814THY    CA332661   2.942   3.511   4.809 -0.1178  0.0251  0.3202
17814THY    HA332662   2.860   3.440   4.818 -0.7748  1.2400  1.1994
17814THY    CA432663   2.950   3.582   4.694 -0.4610 -0.5699 -0.0229
17814THY    HA432664   2.875   3.559   4.619  0.2811 -0.6458 -2.5161
17814THY    CA532665   3.061   3.667   4.675 -0.3280 -0.1309  0.2282
17814THY    CM132666   3.079   3.744   4.554  0.4449 -0.1442 -0.6783
17814THY    HM132667   3.004   3.726   4.476 -0.8785  1.2839 -1.6682
17814THY    HM232668   3.176   3.716   4.511 -0.9466 -3.0606 -1.4363
17814THY    HM332669   3.089   3.848   4.587 -1.9811  0.7762 -0.6839
17814THY    CA632670   3.168   3.670   4.770 -0.4625 -0.5526 -0.4096
17814THY    HA632671   3.257   3.730   4.755 -0.2055  1.2773 -0.2587
17815THY      O32672   4.506   6.264   4.003  0.3669  0.4366 -0.1428
17815THY     HO32673   4.436   6.198   4.023 -0.9155 -1.6477  0.4807
17815THY    CA132674   4.461   6.380   4.066  0.5850 -0.3429  0.5117
17815THY    CA232675   4.540   6.499   4.063  0.5040  0.6625 -0.1782
17815THY    CP132676   4.669   6.505   3.973 -0.4009  0.8210  0.9034
17815THY    HP132677   4.672   6.412   3.915 -0.9845 -1.6757  2.3527
17815THY    CP232678   4.799   6.526   4.054  0.0266 -0.4655  0.2727
17815THY    HP232679   4.823   6.444   4.122 -0.3193  3.0751  2.8517
17815THY    HP332680   4.792   6.617   4.115 -1.2820 -0.7309  0.3737
17815THY    HP432681   4.887   6.522   3.988  0.5171  0.1342  0.8317
17815THY    CP332682   4.628   6.603   3.865  0.0820 -0.1123 -0.0304
17815THY    HP532683   4.576   6.696   3.891  0.2055 -0.0397  0.0192
17815THY    HP632684   4.555   6.560   3.795 -1.1562  0.3950  1.1787
17815THY    HP732685   4.715   6.627   3.802  0.7153  0.4705 -0.7541
17815THY    CA332686   4.500   6.611   4.132  0.5210 -0.1432 -1.0936
17815THY    HA332687   4.562   6.700   4.131  0.9740  1.7977 -1.3441
17815THY    CA432688   4.380   6.606   4.203  0.5993  0.4443  0.0570
17815THY    HA432689   4.354   6.693   4.263  1.4011  1.7580 -0.5909
17815THY    CA532690   4.307   6.490   4.213 -0.1095 -1.1190  0.1268
17815THY    CM132691   4.186   6.493   4.311 -0.8006 -0.8204  0.0667
17815THY    HM132692   4.192   6.394   4.357 -0.0667 -3.7039 -1.3224
17815THY    HM232693   4.092   6.514   4.259 -0.9784 -0.4644  0.1733
17815THY    HM332694   4.190   6.576   4.383 -0.5094 -2.7991  1.8383
17815THY    CA632695   4.344   6.374   4.143  0.0557  0.2816  0.6557
17815THY    HA632696   4.289   6.280   4.146 -0.1027 -0.8890  0.6916
17816THY      O32697   4.690   8.172   5.173 -0.3561  0.3707  0.2501
17816THY     HO32698   4.642   8.254   5.152  2.2527 -0.3398  1.7135
17816THY    CA132699   4.607   8.096   5.242 -0.1606 -0.4180  0.5180
17816THY    CA232700   4.633   7.957   5.257 -0.2018  0.2512  0.2580
17816THY    CP132701   4.764   7.892   5.197  0.0915 -0.2812  0.4889
17816THY    HP132702   4.833   7.970   5.162  0.3467  0.9341  0.8274
17816THY    CP232703   4.743   7.778   5.100 -0.0755 -0.2318 -0.2947
17816THY    HP232704   4.842   7.734   5.082  1.0526  1.2571  1.4844
17816THY    HP332705   4.698   7.815   5.007 -0.1772  0.1512  0.5903
17816THY    HP432706   4.672   7.710   5.149 -0.2099  2.3258  1.5074
17816THY    CP332707   4.841   7.827   5.312  0.0574 -0.2428 -0.5314
17816THY    HP532708   4.948   7.841   5.292  0.1501  0.7560  0.2422
17816THY    HP632709   4.818   7.724   5.339  0.2857  1.9836 -0.0465
17816THY    HP732710   4.830   7.889   5.402  0.3384 -1.2538  1.0635
17816THY    CA332711   4.541   7.882   5.331 -1.1013 -0.8326  0.5607
17816THY    HA332712   4.568   7.782   5.365 -2.8451  0.2885  0.4164
17816THY    CA432713   4.423   7.936   5.382  0.5634  0.8482 -0.0972
17816THY    HA432714   4.353   7.877   5.441  1.0144  1.8481  0.3253
17816THY    CA532715   4.397   8.069   5.363 -0.0035 -0.8710 -0.8909
17816THY    CM132716   4.283   8.137   5.433  0.0880 -0.2648 -0.0239
17816THY    HM132717   4.195   8.073   5.428 -0.2483 -1.8004  0.5128
17816THY    HM232718   4.249   8.234   5.395  0.7926 -1.4522 -0.2117
17816THY    HM332719   4.299   8.153   5.540  0.7173 -0.5946  1.9006
17816THY    CA632720   4.492   8.152   5.300  0.2502 -0.2191 -0.3729
17816THY    HA632721   4.473   8.259   5.290 -1.7765 -0.3759 -0.7040
17817THY      O32722   0.564   4.889   6.127  0.5585  0.0890 -0.1289
17817THY     HO32723   0.576   4.792   6.133 -1.1973  1.1753 -0.3205
17817THY    CA132724   0.450   4.904   6.203 -0.1884  0.2529  0.4144
17817THY    CA232725   0.393   5.029   6.238 -0.7871 -0.2864 -0.0820
17817THY    CP132726   0.478   5.160   6.209 -0.2076 -0.2427  0.0627
17817THY    HP132727   0.564   5.148   6.142 -0.1080 -0.7471  2.8067
17817THY    CP232728   0.522   5.234   6.342 -0.6749  0.7260 -0.4387
17817THY    HP232729   0.560   5.332   6.314 -0.0409  0.1391 -0.8460
17817THY    HP332730   0.606   5.188   6.396 -0.7051  0.9542 -0.2310
17817THY    HP432731   0.432   5.247   6.405 -1.7543 -0.9245  0.3534
17817THY    CP332732   0.393   5.258   6.134 -0.3549 -0.5192 -0.2247
17817THY    HP532733   0.342   5.224   6.044  2.2263 -2.9534  1.8747
17817THY    HP632734   0.443   5.352   6.106 -0.9468 -0.2074  0.1940
17817THY    HP732735   0.311   5.281   6.203 -1.6686 -2.4982  1.4192
17817THY    CA332736   0.266   5.024   6.303 -0.2380 -0.1611  0.6999
17817THY    HA332737   0.211   5.111   6.336 -0.6972  1.8757 -0.2902
17817THY    CA432738   0.204   4.897   6.331  0.0681 -0.9932 -0.1663
17817THY    HA432739   0.107   4.895   6.380  0.4450 -0.0981  1.3859
17817THY    CA532740   0.260   4.777   6.291 -0.8597 -0.1913 -0.3267
17817THY    CM132741   0.183   4.651   6.315 -0.0825  0.4686  0.0237
17817THY    HM132742   0.099   4.661   6.386  0.8975  2.3311 -3.4535
17817THY    HM232743   0.248   4.570   6.350  0.9179  0.8256  0.9625
17817THY    HM332744   0.141   4.618   6.219 -0.1834  0.7497 -0.6816
17817THY    CA632745   0.383   4.783   6.221  0.2890  0.1399 -0.1320
17817THY    HA632746   0.418   4.688   6.184 -2.1489 -1.5600 -0.4476
17818THY      O32747   3.747   5.935   5.550 -0.3868 -0.0012  0.7158
17818THY     HO32748   3.812   5.992   5.506 -0.0805 -1.4859 -0.7357
17818THY    CA132749   3.806   5.886   5.664 -0.0225  0.2862 -1.6192
17818THY    CA232750   3.780   5.761   5.716  0.0370 -0.0341 -0.3446
17818THY    CP132751   3.659   5.682   5.657 -0.7527  0.2413 -0.6054
17818THY    HP132752   3.660   5.692   5.548  0.2591  0.1927 -1.1423
17818THY    CP232753   3.531   5.738   5.719 -0.1542  0.5036  0.1282
17818THY    HP232754   3.447   5.671   5.694 -1.8923 -2.8478  3.2090
17818THY    HP332755   3.508   5.830   5.664  3.4630 -2.3489 -0.4565
17818THY    HP432756   3.552   5.769   5.822  1.6382 -0.0973  1.0490
17818THY    CP332757   3.691   5.531   5.676  0.0383 -0.7221  0.5041
17818THY    HP532758   3.669   5.490   5.776 -0.9417 -1.4672 -0.8987
17818THY    HP632759   3.797   5.513   5.653  0.3388  1.8774 -1.7604
17818THY    HP732760   3.625   5.480   5.605 -0.6801  0.2952 -0.0285
17818THY    CA332761   3.840   5.725   5.839  0.0181  0.4624  0.6125
17818THY    HA332762   3.823   5.634   5.896  2.4954 -1.4861 -1.2392
17818THY    CA432763   3.939   5.806   5.896 -0.3424 -0.0579  0.0678
17818THY    HA432764   3.998   5.761   5.975  0.0367 -0.8989 -0.9542
17818THY    CA532765   3.956   5.941   5.855 -0.2078  0.4537  0.4470
17818THY    CM132766   4.048   6.037   5.928 -0.1596 -0.0649  0.1578
17818THY    HM132767   4.066   6.116   5.855  2.2018  1.3998  1.0633
17818THY    HM232768   4.134   5.987   5.973 -0.2337  2.1159  1.8267
17818THY    HM332769   4.006   6.076   6.022 -1.2576 -0.6379  0.4068
17818THY    CA632770   3.885   5.981   5.741  0.5858  0.1140 -0.1959
17818THY    HA632771   3.880   6.087   5.715 -0.1362  0.8405 -0.0440
17819THY      O32772   4.143   1.245   2.467  0.0220  0.2561  0.0992
17819THY     HO32773   4.167   1.331   2.429 -0.1801 -1.1157 -0.4323
17819THY    CA132774   4.210   1.243   2.584  0.3731 -0.0752 -0.0178
17819THY    CA232775   4.160   1.174   2.704  0.0708  0.2821 -0.1706
17819THY    CP132776   4.037   1.082   2.686 -0.3843 -0.2877  0.2794
17819THY    HP132777   4.020   1.060   2.580 -0.9106 -0.5366  1.8009
17819THY    CP232778   3.907   1.158   2.727  0.0200  0.0048 -0.1231
17819THY    HP232779   3.835   1.082   2.761 -0.5446  0.4779  0.6020
17819THY    HP332780   3.861   1.210   2.642 -1.7256 -0.1350 -1.7879
17819THY    HP432781   3.926   1.232   2.806 -1.4181 -2.9079  3.6911
17819THY    CP332782   4.055   0.947   2.758 -0.7184  0.0113  0.0144
17819THY    HP532783   4.148   0.902   2.722  0.5246  0.7671  1.8703
17819THY    HP632784   3.975   0.875   2.735  2.0667 -1.8370 -2.8036
17819THY    HP732785   4.060   0.963   2.866  0.6264  0.3457 -2.1801
17819THY    CA332786   4.213   1.194   2.828 -0.0200 -0.3429  0.8438
17819THY    HA332787   4.159   1.163   2.916 -0.3242  0.4345  3.3724
17819THY    CA432788   4.340   1.271   2.835  1.1522 -0.5671  0.3466
17819THY    HA432789   4.397   1.293   2.925  0.9386 -0.7947  1.9787
17819THY    CA532790   4.394   1.328   2.718  0.7410  0.0579 -0.5669
17819THY    CM132791   4.520   1.411   2.728 -0.0046  0.2677  0.2782
17819THY    HM132792   4.541   1.455   2.827  3.4158  0.1679 -0.8513
17819THY    HM232793   4.522   1.485   2.647  0.8874 -0.1558 -0.1943
17819THY    HM332794   4.597   1.340   2.698 -0.9738  0.3499 -0.8340
17819THY    CA632795   4.326   1.324   2.598 -0.3313 -0.3333 -0.1577
17819THY    HA632796   4.367   1.377   2.512 -0.1480  1.0675  2.1214
17820THY      O32797   4.769   6.194   4.090 -0.4234  0.1216 -0.2085
17820THY     HO32798   4.674   6.216   4.090 -0.4397 -0.2218 -0.2667
17820THY    CA132799   4.785   6.131   4.209 -0.0085 -0.0428  0.0596
17820THY    CA232800   4.909   6.100   4.270  0.1141  1.2525 -0.4017
17820THY    CP132801   5.041   6.108   4.186  0.2141 -0.0572 -0.1851
17820THY    HP132802   5.026   6.164   4.094  0.0098 -0.3321 -0.6875
17820THY    CP232803   5.077   5.965   4.134 -0.0306  0.0825  0.4963
17820THY    HP232804   5.157   5.972   4.059  0.6820  0.8591  0.8909
17820THY    HP332805   4.988   5.911   4.101 -0.6257  1.7682  0.3819
17820THY    HP432806   5.133   5.916   4.215  0.2434 -0.4419 -0.0728
17820THY    CP332807   5.145   6.186   4.261 -0.6705 -0.4357  0.4299
17820THY    HP532808   5.230   6.203   4.194  0.7707  1.3202  0.4634
17820THY    HP632809   5.177   6.123   4.345 -2.2012 -0.5548 -0.5563
17820THY    HP732810   5.115   6.284   4.299 -0.6353  2.5249 -0.5959
17820THY    CA332811   4.914   6.067   4.407  0.3153 -0.2390 -0.4594
17820THY    HA332812   5.004   6.043   4.462 -0.1471  0.5035 -0.4958
17820THY    CA432813   4.789   6.061   4.478  1.2142 -0.2850  0.2919
17820THY    HA432814   4.788   6.036   4.584  1.2638 -0.3707 -0.0839
17820THY    CA532815   4.667   6.081   4.416  0.0964 -0.0013  0.0057
17820THY    CM132816   4.536   6.049   4.483  0.9527 -0.1608 -0.4644
17820THY    HM132817   4.508   5.946   4.456 -1.0966  0.3224 -0.0783
17820THY    HM232818   4.461   6.123   4.454 -0.2546  1.4783 -0.9850
17820THY    HM332819   4.544   6.045   4.592  0.1918 -0.0433  0.8242
17820THY    CA632820   4.669   6.105   4.281 -1.0406 -0.2713  0.0348
17820THY    HA632821   4.575   6.121   4.229 -0.3846 -0.9999  1.7187
17821THY      O32822   5.434   5.141   7.413 -0.0469 -0.2974 -0.4427
17821THY     HO32823   5.339   5.120   7.407 -0.3791  2.3098 -0.0282
17821THY    CA132824   5.440   5.274   7.440 -0.0889  0.3155  0.7530
17821THY    CA232825   5.558   5.333   7.481 -0.3121  0.3336  0.8250
17821THY    CP132826   5.685   5.255   7.510  0.0676 -0.0969  0.2508
17821THY    HP132827   5.668   5.146   7.511  0.8309 -1.2720  0.0928
17821THY    CP232828   5.736   5.285   7.654 -0.7475 -0.1678 -0.9383
17821THY    HP232829   5.799   5.375   7.653 -1.7591  0.8384 -0.1954
17821THY    HP332830   5.809   5.204   7.669  1.8397 -1.9683  0.9023
17821THY    HP432831   5.660   5.293   7.732 -0.5011 -0.1143  1.5291
17821THY    CP332832   5.800   5.292   7.406  0.5461 -0.1923  0.0828
17821THY    HP532833   5.819   5.399   7.412 -0.6634  0.0065  0.3020
17821THY    HP632834   5.780   5.282   7.299  1.7021 -0.4123 -0.0931
17821THY    HP732835   5.896   5.243   7.428  0.3619  0.0336 -0.1864
17821THY    CA332836   5.562   5.470   7.508 -0.9743 -0.0079  0.3960
17821THY    HA332837   5.652   5.510   7.553 -2.1487  3.4276 -0.4666
17821THY    CA432838   5.456   5.550   7.477  1.1079 -0.3273 -0.0761
17821THY    HA432839   5.455   5.658   7.491 -0.5497 -1.0375  0.0345
17821THY    CA532840   5.334   5.492   7.445 -0.6897  0.1080 -0.6655
17821THY    CM132841   5.205   5.569   7.446 -1.4615  0.1349  0.3910
17821THY    HM132842   5.200   5.653   7.375  0.4012  1.4144  1.6594
17821THY    HM232843   5.188   5.615   7.543  0.6858 -1.0192  3.9968
17821THY    HM332844   5.117   5.508   7.422 -1.9031 -1.5099  1.6112
17821THY    CA632845   5.324   5.356   7.425 -0.1993  0.5391  0.4434
17821THY    HA632846   5.235   5.298   7.402 -0.7843 -3.8316  2.6889
17822THY      O32847   2.120   8.781   5.516  0.6440  0.2269 -0.1642
17822THY     HO32848   2.078   8.704   5.474  0.8337 -1.8935  0.8196
17822THY    CA132849   2.239   8.778   5.453 -0.2805 -0.1691  0.4760
17822THY    CA232850   2.358   8.821   5.531 -0.7442 -0.2253 -0.4017
17822THY    CP132851   2.353   8.865   5.677  0.3156  0.6520 -0.5312
17822THY    HP132852   2.258   8.915   5.699  0.6872  1.6202 -0.2217
17822THY    CP232853   2.453   8.984   5.695 -0.2978 -0.6108  0.2917
17822THY    HP232854   2.436   9.057   5.616 -1.5716 -1.6915 -1.1026
17822THY    HP332855   2.557   8.956   5.714 -0.9820 -0.5166 -2.5926
17822THY    HP432856   2.422   9.035   5.787  1.7799  1.0057 -1.1625
17822THY    CP332857   2.385   8.754   5.776 -0.2700  0.1584  0.6104
17822THY    HP532858   2.383   8.799   5.876 -2.0091  1.0407 -1.2529
17822THY    HP632859   2.484   8.713   5.754 -0.5061  2.6609 -1.6041
17822THY    HP732860   2.301   8.684   5.768 -0.6224 -0.9467  1.1363
17822THY    CA332861   2.481   8.799   5.464 -0.5073 -0.1454 -0.3604
17822THY    HA332862   2.575   8.827   5.511 -1.7635 -0.0050  4.4620
17822THY    CA432863   2.476   8.757   5.323 -0.2317 -0.6221  0.8788
17822THY    HA432864   2.570   8.762   5.268  0.1875  0.0462  0.5603
17822THY    CA532865   2.359   8.743   5.253 -0.0929 -0.1180  0.0343
17822THY    CM132866   2.352   8.722   5.105  0.5963 -0.0021  0.1279
17822THY    HM132867   2.412   8.635   5.075  1.2394  1.8551 -0.1081
17822THY    HM232868   2.396   8.802   5.045 -0.1570 -2.0884 -0.9520
17822THY    HM332869   2.247   8.714   5.074  0.5815 -0.1254  0.7301
17822THY    CA632870   2.237   8.753   5.318 -0.5624 -0.6491  0.0924
17822THY    HA632871   2.140   8.733   5.274 -0.5898 -1.2687  1.5081
17823THY      O32872   2.050   2.633   2.952  0.2348  0.6081  0.1617
17823THY     HO32873   2.044   2.593   2.863  1.7385  0.7559 -0.4425
17823THY    CA132874   2.175   2.692   2.960 -0.2367  0.1076 -0.2503
17823THY    CA232875   2.288   2.660   2.880  0.0948  0.1733 -0.9066
17823THY    CP132876   2.279   2.564   2.765  0.0200  0.2111  0.2513
17823THY    HP132877   2.178   2.521   2.759  0.6007  0.1070 -1.1580
17823THY    CP232878   2.354   2.438   2.780 -0.7735  0.0996  0.8127
17823THY    HP232879   2.316   2.389   2.871  0.9291 -0.7700 -2.3677
17823THY    HP332880   2.461   2.459   2.783 -0.5284 -3.5426  0.6233
17823THY    HP432881   2.330   2.370   2.698 -1.0711  0.5624  0.3531
17823THY    CP332882   2.320   2.639   2.640  0.0556 -0.0186 -0.3684
17823THY    HP532883   2.422   2.681   2.644 -0.3293  0.3052  0.5729
17823THY    HP632884   2.259   2.725   2.610  2.7754 -1.7309  1.1411
17823THY    HP732885   2.313   2.566   2.559 -0.8907 -1.0537  0.8333
17823THY    CA332886   2.407   2.730   2.908 -0.5084 -0.1971  0.2856
17823THY    HA332887   2.498   2.710   2.852 -0.3457  0.6427 -1.5147
17823THY    CA432888   2.411   2.831   2.998 -0.3606 -0.2364 -0.2668
17823THY    HA432889   2.495   2.900   2.994 -0.1915 -0.3130 -0.4755
17823THY    CA532890   2.293   2.865   3.068  0.5843 -0.2941  0.1742
17823THY    CM132891   2.302   2.987   3.161 -0.1968  0.1293  0.0363
17823THY    HM132892   2.205   3.038   3.155  0.7097 -0.7140  1.7720
17823THY    HM232893   2.380   3.059   3.135  0.5484 -0.6169 -1.0157
17823THY    HM332894   2.323   2.954   3.264  1.1157  0.1796  0.9298
17823THY    CA632895   2.181   2.794   3.061  0.1011 -0.0698 -0.2556
17823THY    HA632896   2.090   2.823   3.113 -0.2664 -1.1373  0.5667
17824THY      O32897   1.926   7.629   7.945  0.5221  0.8285  0.1465
17824THY     HO32898   1.893   7.538   7.958 -0.4867  1.8147  0.6280
17824THY    CA132899   1.894   7.666   7.818 -0.5239 -0.3353 -0.1300
17824THY    CA232900   1.957   7.782   7.758 -0.1291 -0.5520  0.6645
17824THY    CP132901   2.069   7.847   7.828  0.2423 -0.2172 -0.0798
17824THY    HP132902   2.117   7.777   7.897 -1.2347  0.7657 -0.1663
17824THY    CP232903   2.026   7.977   7.910  0.2350  0.0512 -0.0150
17824THY    HP232904   1.963   7.953   7.996  1.4018  0.8974 -0.1214
17824THY    HP332905   1.967   8.032   7.836 -0.1987  2.0115  2.2711
17824THY    HP432906   2.114   8.032   7.946  1.3887 -1.5576 -0.7019
17824THY    CP332907   2.192   7.878   7.737  0.3572  0.5130  0.3825
17824THY    HP532908   2.222   7.786   7.685 -0.2565 -1.5461  1.2732
17824THY    HP632909   2.274   7.916   7.798  0.8237  0.1426 -0.0136
17824THY    HP732910   2.171   7.948   7.656 -1.6948  1.9496  1.5423
17824THY    CA332911   1.902   7.821   7.632  0.1586 -0.6732  0.4826
17824THY    HA332912   1.946   7.905   7.578  2.2731  1.2238  0.7031
17824THY    CA432913   1.797   7.753   7.572  0.2594 -1.2973 -0.2851
17824THY    HA432914   1.750   7.779   7.478  0.6251 -1.1428  1.0225
17824THY    CA532915   1.754   7.632   7.632  0.5939  0.3635 -0.4000
17824THY    CM132916   1.631   7.555   7.566  0.5780  0.2179 -0.6762
17824THY    HM132917   1.589   7.611   7.482 -0.4291  0.9538 -0.3145
17824THY    HM232918   1.550   7.541   7.638  0.1478  0.5179  2.6263
17824THY    HM332919   1.680   7.459   7.547 -0.2856  2.8125 -1.7046
17824THY    CA632920   1.801   7.590   7.756 -0.0121  0.2915  0.4627
17824THY    HA632921   1.742   7.512   7.803 -0.0145  0.0122  0.2945
17825THY      O32922   3.769   0.769   7.453  0.0162  0.0647 -0.0220
17825THY     HO32923   3.845   0.771   7.391 -2.0758 -2.6785  1.8293
17825THY    CA132924   3.660   0.734   7.377 -0.2203 -0.3060 -0.3973
17825THY    CA232925   3.526   0.747   7.426 -0.4210 -0.4313 -0.4351
17825THY    CP132926   3.496   0.785   7.572 -0.4033  0.7549  0.1556
17825THY    HP132927   3.590   0.834   7.600 -0.2528  0.1073  0.2527
17825THY    CP232928   3.463   0.673   7.668 -0.3469  0.1351  0.3346
17825THY    HP232929   3.362   0.631   7.661 -0.1373 -1.1411  0.0230
17825THY    HP332930   3.500   0.699   7.768 -0.2332  0.2575 -0.2877
17825THY    HP432931   3.522   0.588   7.632 -2.0190 -0.1927 -0.7462
17825THY    CP332932   3.395   0.896   7.573  0.0319  0.3129 -0.2449
17825THY    HP532933   3.363   0.924   7.674 -0.7347 -0.3749  1.4740
17825THY    HP632934   3.305   0.845   7.538  0.2749 -1.3338  0.3908
17825THY    HP732935   3.416   0.992   7.525 -2.2309  0.4784  0.3729
17825THY    CA332936   3.419   0.724   7.332 -0.6444 -0.3853  0.7530
17825THY    HA332937   3.314   0.721   7.360 -0.5782 -0.2184 -0.2144
17825THY    CA432938   3.450   0.681   7.203 -0.1831 -0.0761  0.6162
17825THY    HA432939   3.372   0.642   7.139 -0.4980  0.0780  0.9859
17825THY    CA532940   3.581   0.667   7.162 -0.8827  0.8656 -0.2874
17825THY    CM132941   3.607   0.611   7.025  0.5335  0.0365  0.7285
17825THY    HM132942   3.683   0.532   7.029  1.2264 -2.7516  1.1528
17825THY    HM232943   3.646   0.692   6.963 -0.7588 -0.2333  1.1764
17825THY    HM332944   3.517   0.569   6.978  0.5351 -0.0840  0.8594
17825THY    CA632945   3.688   0.693   7.249 -0.3431  0.5244 -0.4583
17825THY    HA632946   3.790   0.683   7.214 -0.2302  0.8566 -0.4603
17826THY      O32947   0.381   8.736   2.576 -0.3741  0.3260  0.2046
17826THY     HO32948   0.404   8.686   2.496  0.2255  0.9494 -0.5560
17826THY    CA132949   0.501   8.760   2.638 -0.2492  0.4711 -0.0662
17826THY    CA232950   0.511   8.832   2.756  0.1346  0.1301  0.2728
17826THY    CP132951   0.387   8.909   2.812 -0.0929  0.1702 -0.3100
17826THY    HP132952   0.299   8.904   2.746 -0.7186  1.0017 -0.4948
17826THY    CP232953   0.415   9.059   2.824 -0.3160  0.6685  0.1436
17826THY    HP232954   0.321   9.106   2.856  0.9801  2.4674  1.6482
17826THY    HP332955   0.451   9.110   2.734 -0.6785  0.0608 -0.6465
17826THY    HP432956   0.484   9.078   2.906  0.0677  0.4118 -0.1223
17826THY    CP332957   0.354   8.859   2.954 -0.0251 -0.2382 -0.3289
17826THY    HP532958   0.452   8.841   3.000  0.0144  0.5366  1.6660
17826THY    HP632959   0.294   8.767   2.952 -0.4903  1.0080 -0.0685
17826THY    HP732960   0.295   8.934   3.007  0.3775  1.0050 -0.8710
17826THY    CA332961   0.637   8.846   2.813 -0.8633 -0.1668 -0.0753
17826THY    HA332962   0.646   8.895   2.909  1.0199 -0.1165 -0.4325
17826THY    CA432963   0.746   8.787   2.751 -0.0825 -0.9801  0.0123
17826THY    HA432964   0.844   8.811   2.790 -1.6905  1.5395  3.1538
17826THY    CA532965   0.731   8.721   2.637 -0.7185  0.4805  0.2654
17826THY    CM132966   0.852   8.674   2.573  0.0611 -0.1017 -0.3518
17826THY    HM132967   0.813   8.667   2.471 -1.5682  0.0346  3.9009
17826THY    HM232968   0.883   8.576   2.612 -1.3650  0.9055 -0.4382
17826THY    HM332969   0.931   8.749   2.577 -0.0635 -0.1173 -0.2183
17826THY    CA632970   0.609   8.702   2.575 -0.1292 -0.0666 -0.2078
17826THY    HA632971   0.593   8.645   2.483  2.0427  0.1961 -1.3597
17827THY      O32972   4.542   7.733   2.194  0.3242  0.5788 -0.1905
17827THY     HO32973   4.562   7.822   2.162  0.5117 -0.2451 -0.5195
17827THY    CA132974   4.615   7.653   2.113  1.1743 -0.2755  0.0262
17827THY    CA232975   4.557   7.529   2.079 -0.4476 -0.4997  0.1244
17827THY    CP132976   4.429   7.482   2.144  1.4940 -0.0345  0.3020
17827THY    HP132977   4.380   7.553   2.211 -0.5055  0.2923 -1.2694
17827THY    CP232978   4.451   7.354   2.231 -0.6784  0.3611 -0.8026
17827THY    HP232979   4.489   7.267   2.177  1.6680  1.9584 -0.8621
17827THY    HP332980   4.367   7.336   2.300  0.0206  1.6491  0.6131
17827THY    HP432981   4.531   7.385   2.300 -0.2910 -0.6776  0.6186
17827THY    CP332982   4.328   7.442   2.023  0.2672 -0.7624 -0.0572
17827THY    HP532983   4.309   7.528   1.958 -1.0323 -0.7658 -0.3159
17827THY    HP632984   4.229   7.434   2.070  0.9338  0.6662 -0.2541
17827THY    HP732985   4.355   7.355   1.962 -1.6564 -0.7491 -0.7243
17827THY    CA332986   4.619   7.447   1.982 -0.1628  0.6968  0.4695
17827THY    HA332987   4.593   7.345   1.956  1.8220  3.5687 -0.8851
17827THY    CA432988   4.742   7.498   1.925  1.2790 -0.1755  0.8790
17827THY    HA432989   4.797   7.446   1.847  0.0136 -1.7067  1.7366
17827THY    CA532990   4.791   7.627   1.962 -0.8267 -0.6218  0.6056
17827THY    CM132991   4.908   7.678   1.885 -0.0864  0.2423  0.4390
17827THY    HM132992   4.925   7.626   1.790  0.3283 -0.0550  1.0929
17827THY    HM232993   4.998   7.669   1.947 -0.0530  0.4176  1.8004
17827THY    HM332994   4.893   7.779   1.845 -1.1582 -4.5401 -1.3536
17827THY    CA632995   4.726   7.706   2.053  0.5485  0.3340 -0.0347
17827THY    HA632996   4.767   7.805   2.071 -0.6872  0.1749  0.5257
17828THY      O32997   7.234   5.763   5.405 -0.1874 -0.2327 -0.6998
17828THY     HO32998   7.295   5.831   5.370 -0.7295 -1.9307 -1.0384
17828THY    CA132999   7.293   5.661   5.472  0.5202  0.3859 -0.1651
17828THY    CA233000   7.219   5.549   5.507 -0.2660  0.4716  0.9556
17828THY    CP133001   7.072   5.543   5.482  0.2207 -0.2930  0.1194
17828THY    HP133002   7.042   5.634   5.429 -0.6139 -0.6231 -0.3305
17828THY    CP233003   6.984   5.529   5.606 -0.6857  0.3459  0.6046
17828THY    HP233004   6.878   5.521   5.577 -0.5636 -0.3985  1.4814
17828THY    HP333005   7.008   5.611   5.675  2.9601  0.9722 -0.7913
17828THY    HP433006   7.006   5.439   5.663 -1.6009  0.8283  0.6719
17828THY    CP333007   7.034   5.427   5.385  0.5469 -0.3113 -0.4308
17828THY    HP533008   7.070   5.447   5.284  2.5274  0.9351  3.2368
17828THY    HP633009   6.926   5.413   5.377  0.7602 -1.0773 -1.7313
17828THY    HP733010   7.061   5.327   5.420 -1.2980  0.1532 -0.7925
17828THY    CA333011   7.289   5.436   5.561  0.0335  0.0976  0.1757
17828THY    HA333012   7.230   5.349   5.588 -1.1724  1.3296  1.3197
17828THY    CA433013   7.424   5.445   5.578 -0.3424 -0.2778  0.8442
17828THY    HA433014   7.482   5.362   5.616 -1.6956 -0.7779 -0.3784
17828THY    CA533015   7.498   5.558   5.549  0.7093  0.3558  0.3022
17828THY    CM133016   7.643   5.550   5.561  0.0559  0.0617 -0.4292
17828THY    HM133017   7.685   5.565   5.661 -0.0040  0.2325 -1.3233
17828THY    HM233018   7.693   5.609   5.484  0.0171  0.6956  0.4454
17828THY    HM333019   7.668   5.445   5.540  1.7089 -1.1432  0.1767
17828THY    CA633020   7.437   5.669   5.496 -0.2773  0.3221  0.1946
17828THY    HA633021   7.502   5.751   5.466  0.1089  2.9747  0.9700
17829THY      O33022   3.645   3.577   7.350 -0.0494 -0.2994  0.4944
17829THY     HO33023   3.693   3.498   7.320  2.7162 -0.1532  1.9933
17829THY    CA133024   3.690   3.588   7.480 -0.2689  0.8263 -0.7669
17829THY    CA233025   3.608   3.627   7.580  0.2476 -0.3485  1.1849
17829THY    CP133026   3.463   3.673   7.557  0.4182  0.0428 -0.3381
17829THY    HP133027   3.442   3.689   7.450  1.5175  0.2521  3.7459
17829THY    CP233028   3.448   3.816   7.608  0.2867 -0.3667  0.0852
17829THY    HP233029   3.353   3.853   7.566 -0.8336  1.1974 -0.8764
17829THY    HP333030   3.539   3.869   7.580 -0.0502 -0.6758  0.5101
17829THY    HP433031   3.433   3.814   7.717 -1.9908 -0.6200  0.1376
17829THY    CP333032   3.373   3.568   7.606  0.0699 -1.1118 -0.3289
17829THY    HP533033   3.406   3.476   7.556  2.4806 -0.1391 -0.0637
17829THY    HP633034   3.270   3.583   7.569 -0.8815  1.3447 -0.3689
17829THY    HP733035   3.377   3.565   7.715 -1.2109 -0.9148  2.0997
17829THY    CA333036   3.649   3.622   7.716  0.0799 -0.0917  0.7157
17829THY    HA333037   3.575   3.648   7.792  0.4385  0.5172 -0.0092
17829THY    CA433038   3.782   3.578   7.738  0.8512 -0.2473 -0.0809
17829THY    HA433039   3.817   3.577   7.841 -2.0526  0.8283 -0.8464
17829THY    CA533040   3.868   3.538   7.633  1.2148 -0.1859  0.2200
17829THY    CM133041   4.014   3.494   7.659 -0.2683 -0.3007  0.0635
17829THY    HM133042   4.078   3.540   7.583 -0.6539 -0.9319 -0.4279
17829THY    HM233043   4.036   3.387   7.647  0.5451  0.8770  0.0831
17829THY    HM333044   4.055   3.511   7.759  0.1570 -0.2617 -1.0944
17829THY    CA633045   3.820   3.539   7.501  1.1763 -0.1367  0.0724
17829THY    HA633046   3.892   3.513   7.424 -0.6854 -1.1867 -2.2748
17830THY      O33047   7.106   7.186   4.409  0.4518 -0.0587 -0.3458
17830THY     HO33048   7.121   7.280   4.429 -3.2164 -0.7421  0.5251
17830THY    CA133049   7.223   7.132   4.362  0.3654  0.4414  0.1523
17830THY    CA233050   7.228   7.007   4.302  0.2076  0.2237 -0.3409
17830THY    CP133051   7.103   6.914   4.296  0.1799 -0.2641  0.9302
17830THY    HP133052   7.020   6.985   4.304 -0.0238 -0.0187  0.6664
17830THY    CP233053   7.104   6.798   4.403 -0.7424 -0.3591 -0.7041
17830THY    HP233054   7.185   6.726   4.385 -2.3759 -0.8513 -2.4914
17830THY    HP333055   7.014   6.735   4.405 -1.1979 -0.4594 -0.0617
17830THY    HP433056   7.124   6.838   4.503 -0.9875 -0.3431 -0.6222
17830THY    CP333057   7.086   6.856   4.152 -0.2928  0.0448 -0.1606
17830THY    HP533058   7.162   6.781   4.127  0.2788  0.2906  0.3257
17830THY    HP633059   7.088   6.936   4.076 -0.3577  0.3124  0.0992
17830THY    HP733060   6.985   6.817   4.135 -1.0729  2.2049  0.7836
17830THY    CA333061   7.349   6.954   4.260 -0.3437  0.4049 -0.6868
17830THY    HA333062   7.356   6.855   4.216 -0.3128 -1.2715  0.0314
17830THY    CA433063   7.466   7.039   4.262 -0.5407  0.7151  0.0577
17830THY    HA433064   7.557   7.007   4.213  0.3152  1.5330  1.1478
17830THY    CA533065   7.460   7.166   4.319  0.2795 -0.1505  0.2850
17830THY    CM133066   7.585   7.248   4.354 -0.4083  0.6190  0.1257
17830THY    HM133067   7.673   7.203   4.306 -0.4567  0.7148 -0.0692
17830THY    HM233068   7.605   7.237   4.461 -0.6290  0.5603 -1.0127
17830THY    HM333069   7.575   7.354   4.329  1.3877  0.5815  0.3175
17830THY    CA633070   7.340   7.207   4.377 -0.7667  0.3076  0.5287
17830THY    HA633071   7.341   7.294   4.442 -0.5150  0.8076  0.1529
17831THY      O33072   4.398   5.084   7.630  0.1046 -0.7855 -0.0447
17831THY     HO33073   4.353   5.158   7.673  0.7280  2.2583 -1.2836
17831THY    CA133074   4.321   5.035   7.530  0.0188 -0.2711  0.5792
17831THY    CA233075   4.361   4.925   7.455  0.2959  0.1488 -0.4541
17831THY    CP133076   4.490   4.860   7.494 -0.2422  0.5517 -0.5109
17831THY    HP133077   4.556   4.923   7.556  0.0630 -1.1807  0.9545
17831THY    CP233078   4.588   4.845   7.375 -0.6072 -0.2605  0.4769
17831THY    HP233079   4.602   4.933   7.311  0.4354  3.0950  2.9724
17831THY    HP333080   4.547   4.768   7.309  0.1823  0.5020 -0.6365
17831THY    HP433081   4.686   4.805   7.404  0.8146 -3.0192  1.6951
17831THY    CP333082   4.470   4.721   7.554 -0.4516  0.0828 -0.3125
17831THY    HP533083   4.426   4.647   7.487  1.3512 -2.5716  0.8779
17831THY    HP633084   4.409   4.742   7.643 -0.6046  0.3493 -1.7575
17831THY    HP733085   4.559   4.672   7.595 -2.3539  3.4909 -1.2815
17831THY    CA333086   4.275   4.871   7.356  0.1903  0.4242 -0.8999
17831THY    HA333087   4.317   4.802   7.283 -0.9474 -1.1492  0.0135
17831THY    CA433088   4.149   4.929   7.337 -0.1175  0.2001 -0.0189
17831THY    HA433089   4.086   4.901   7.253  1.1227 -1.1978  1.1656
17831THY    CA533090   4.111   5.034   7.421  0.4395 -0.0378 -0.0056
17831THY    CM133091   3.974   5.080   7.413  0.3729  0.1900 -0.3652
17831THY    HM133092   3.905   4.996   7.429  0.9058  1.0027 -0.6663
17831THY    HM233093   3.954   5.128   7.316  1.1067  1.1920  2.1120
17831THY    HM333094   3.966   5.159   7.488  3.3294 -0.0042  0.2243
17831THY    CA633095   4.199   5.093   7.516  0.3990 -0.6259 -0.0887
17831THY    HA633096   4.173   5.173   7.584  3.3453  0.3000  0.1998
17832THY      O33097   4.400   6.454   4.992 -0.4020  0.0688  0.3910
17832THY     HO33098   4.377   6.360   5.000 -0.3810  2.4510  0.5265
17832THY    CA133099   4.336   6.501   4.889 -0.3706  0.1978  0.5267
17832THY    CA233100   4.337   6.640   4.857 -0.7333 -0.2514  0.1049
17832THY    CP133101   4.413   6.741   4.940  0.5251 -0.0213 -1.0322
17832THY    HP133102   4.476   6.678   5.005  1.6456 -1.1794 -1.1646
17832THY    CP233103   4.327   6.835   5.018 -0.0903  0.0191 -0.4866
17832THY    HP233104   4.277   6.912   4.957 -1.5882  0.1778 -1.2813
17832THY    HP333105   4.396   6.889   5.083 -1.2340 -0.7211  2.0418
17832THY    HP433106   4.255   6.776   5.076  1.4189  0.8799 -1.5357
17832THY    CP333107   4.501   6.828   4.852  0.2507 -0.5196 -0.5611
17832THY    HP533108   4.538   6.906   4.919  0.4106 -1.9663  0.6491
17832THY    HP633109   4.445   6.876   4.771 -3.1239  1.3811 -0.9737
17832THY    HP733110   4.582   6.762   4.817  1.0791  1.0144 -0.3882
17832THY    CA333111   4.245   6.679   4.755  0.0017  0.1236 -0.0282
17832THY    HA333112   4.227   6.785   4.744  1.6309 -3.1721  0.0184
17832THY    CA433113   4.181   6.585   4.677 -0.4470  0.2891 -0.0036
17832THY    HA433114   4.116   6.612   4.594 -1.2604  0.3261 -1.7020
17832THY    CA533115   4.180   6.449   4.712 -0.2129 -0.0004  0.5480
17832THY    CM133116   4.090   6.356   4.641 -0.1788  0.3032  0.3233
17832THY    HM133117   4.023   6.410   4.573  0.5436 -1.3905 -0.8077
17832THY    HM233118   4.023   6.300   4.707 -1.5293 -1.6632 -0.5178
17832THY    HM333119   4.141   6.283   4.576 -0.3991 -0.3707  0.7571
17832THY    CA633120   4.267   6.410   4.816  0.1023 -0.2148  0.1952
17832THY    HA633121   4.261   6.302   4.831  2.1288  0.4711  0.1358
17833THY      O33122   4.065   2.141   2.687 -0.9445 -0.5560  0.3815
17833THY     HO33123   4.073   2.182   2.599  0.8513 -0.9854 -0.7586
17833THY    CA133124   3.938   2.094   2.682  0.3733 -0.2106  0.4309
17833THY    CA233125   3.861   2.052   2.794  0.3899 -0.7131 -0.4196
17833THY    CP133126   3.921   2.056   2.937  0.1201  0.0895  0.0392
17833THY    HP133127   4.018   2.101   2.911 -0.6751 -1.9947  0.6569
17833THY    CP233128   3.925   1.922   3.013 -0.0299  0.1941  0.2323
17833THY    HP233129   4.003   1.858   2.971 -0.9751  1.1924 -1.6678
17833THY    HP333130   3.833   1.866   2.996 -1.9501  1.5372  2.7646
17833THY    HP433131   3.935   1.932   3.122  0.9317  0.5411 -3.3563
17833THY    CP333132   3.850   2.159   3.028 -0.2497  0.3180 -0.2118
17833THY    HP533133   3.744   2.132   3.033 -1.0178 -1.0314  2.2728
17833THY    HP633134   3.885   2.255   2.988  1.3813 -1.4328 -1.4785
17833THY    HP733135   3.902   2.149   3.124  0.7359 -0.1210  0.4625
17833THY    CA333136   3.732   2.006   2.771 -0.4166 -0.1418 -0.2525
17833THY    HA333137   3.674   1.977   2.859 -0.9053 -1.7297 -5.0244
17833THY    CA433138   3.672   2.013   2.642  0.5464 -1.5685 -0.0865
17833THY    HA433139   3.569   1.981   2.624  0.4200  1.6842 -1.8956
17833THY    CA533140   3.750   2.056   2.534 -0.5463 -0.0749  0.1626
17833THY    CM133141   3.686   2.066   2.399  0.0765  0.3332 -1.0171
17833THY    HM133142   3.774   2.056   2.335 -0.2615 -0.5160  0.9015
17833THY    HM233143   3.645   2.167   2.381 -0.4967  0.6926 -1.1796
17833THY    HM333144   3.613   1.987   2.383 -0.5103  1.8963 -0.8367
17833THY    CA633145   3.884   2.091   2.552  0.5475 -0.9315 -0.6596
17833THY    HA633146   3.939   2.125   2.464 -0.5114 -1.6506 -0.7666
17834THY      O33147   3.975   1.899   3.865  0.3662  0.5073 -0.3123
17834THY     HO33148   3.894   1.848   3.879  1.3190  1.7868 -1.5927
17834THY    CA133149   3.963   2.019   3.923 -0.2413  0.6578 -1.1098
17834THY    CA233150   4.059   2.123   3.897  0.7407 -0.2189 -0.3126
17834THY    CP133151   4.181   2.093   3.804  0.1357 -0.4519 -0.3738
17834THY    HP133152   4.154   2.005   3.746  0.4889 -0.0297 -0.7700
17834THY    CP233153   4.311   2.061   3.865  0.3874 -0.3696 -0.5444
17834THY    HP233154   4.295   1.987   3.944 -0.1789 -1.8688 -2.0677
17834THY    HP333155   4.363   2.149   3.906  0.2508 -2.3894  0.5414
17834THY    HP433156   4.392   2.016   3.807  2.5321  2.3370 -0.4423
17834THY    CP333157   4.206   2.212   3.714 -0.5369 -0.8564 -0.7842
17834THY    HP533158   4.209   2.314   3.753 -1.6723 -0.9937 -0.6929
17834THY    HP633159   4.119   2.201   3.648 -0.4172 -1.0765 -0.4208
17834THY    HP733160   4.299   2.197   3.657  1.1012  1.6482 -0.7886
17834THY    CA333161   4.046   2.242   3.967  0.2212  0.1978  0.0032
17834THY    HA333162   4.121   2.319   3.958  0.1635  0.2962  0.0704
17834THY    CA433163   3.937   2.260   4.050  0.4292  0.4329  0.0420
17834THY    HA433164   3.921   2.352   4.106  1.2102  0.2610  0.2846
17834THY    CA533165   3.830   2.165   4.058 -0.9204 -0.2084  0.2173
17834THY    CM133166   3.714   2.173   4.151  0.6101 -0.0449  0.7964
17834THY    HM133167   3.673   2.073   4.170  0.2823  1.8377  1.2428
17834THY    HM233168   3.630   2.229   4.107 -1.1781  0.1798 -1.5382
17834THY    HM333169   3.730   2.228   4.245  0.4117  0.0595  0.6768
17834THY    CA633170   3.844   2.048   3.984  0.0581  0.6255 -0.1161
17834THY    HA633171   3.765   1.974   3.973 -1.1110  1.7735  0.9194
17835THY      O33172   0.082   1.830   7.624  0.5373  0.0431  0.1140
17835THY     HO33173   0.078   1.927   7.628 -0.0237  2.1416  0.0543
17835THY    CA133174   0.157   1.808   7.519 -0.2489 -0.3539  0.7150
17835THY    CA233175   0.252   1.704   7.525 -0.0726 -0.7586 -0.9511
17835THY    CP133176   0.263   1.610   7.648 -0.1466  0.7068 -0.5086
17835THY    HP133177   0.175   1.626   7.712 -0.5966 -0.5387  2.5249
17835THY    CP233178   0.385   1.635   7.743 -0.1862  0.7504 -0.0526
17835THY    HP233179   0.478   1.640   7.685 -1.5797 -1.5258  0.8495
17835THY    HP333180   0.390   1.548   7.810 -2.2024  0.2569 -0.5857
17835THY    HP433181   0.379   1.730   7.799 -1.4749 -2.1661  1.7084
17835THY    CP333182   0.268   1.462   7.601 -0.4873  0.1107  0.2317
17835THY    HP533183   0.366   1.430   7.565 -1.8310 -1.6826 -2.1560
17835THY    HP633184   0.198   1.439   7.520 -1.1272  0.8917 -0.6547
17835THY    HP733185   0.244   1.403   7.691 -0.1605 -1.0758 -1.7877
17835THY    CA333186   0.346   1.679   7.419  1.0803  0.1922 -0.7204
17835THY    HA333187   0.430   1.610   7.428  1.2477 -1.6572 -0.8053
17835THY    CA433188   0.319   1.749   7.297 -0.3130 -0.0024  0.1653
17835THY    HA433189   0.371   1.725   7.205 -1.2758 -1.1577  2.2617
17835THY    CA533190   0.213   1.846   7.292 -0.2115 -0.0844  0.6394
17835THY    CM133191   0.178   1.930   7.168  0.4764  1.0269  0.4356
17835THY    HM133192   0.075   1.899   7.147  0.1575  0.8051  1.5731
17835THY    HM233193   0.241   1.907   7.081 -1.0175 -0.2154  0.8990
17835THY    HM333194   0.196   2.038   7.176 -1.3895 -2.0506  1.0873
17835THY    CA633195   0.143   1.887   7.411  0.1776  0.3409 -0.5977
17835THY    HA633196   0.073   1.970   7.417 -0.2452 -2.6166 -0.6355
17836THY      O33197   3.399   0.969   7.113  0.1276 -0.0617  0.5055
17836THY     HO33198   3.404   0.908   7.188  0.3900 -0.7175 -0.3025
17836THY    CA133199   3.301   1.053   7.139  0.4823  0.3368 -0.5891
17836THY    CA233200   3.266   1.159   7.048  0.0200  0.5149 -0.1517
17836THY    CP133201   3.344   1.179   6.917 -0.1821  0.4726 -0.3549
17836THY    HP133202   3.397   1.092   6.877  0.8787 -2.3076  1.4452
17836THY    CP233203   3.447   1.283   6.941 -0.1064 -0.0475  0.3016
17836THY    HP233204   3.519   1.277   6.858 -0.7707 -0.7217  1.3931
17836THY    HP333205   3.508   1.271   7.032  0.9965 -0.9045 -0.8888
17836THY    HP433206   3.411   1.386   6.950  2.3932  0.1285  1.2295
17836THY    CP333207   3.266   1.222   6.795  0.0780 -0.7870  0.5488
17836THY    HP533208   3.238   1.328   6.803  3.6772 -1.2957  1.6455
17836THY    HP633209   3.177   1.158   6.786  1.1047 -2.6992 -0.7066
17836THY    HP733210   3.323   1.205   6.704 -1.5689 -1.5216 -1.4399
17836THY    CA333211   3.170   1.258   7.088 -0.5937 -0.4869  0.2502
17836THY    HA333212   3.128   1.339   7.029 -1.4767  3.4822  3.0150
17836THY    CA433213   3.110   1.232   7.210  0.2515  0.5840 -0.0956
17836THY    HA433214   3.033   1.302   7.242 -1.1980  0.2971 -1.5004
17836THY    CA533215   3.143   1.132   7.297  0.0397  0.1885  0.0228
17836THY    CM133216   3.071   1.131   7.433 -0.0867 -0.5585 -0.1842
17836THY    HM133217   3.110   1.051   7.497 -0.1767  1.5444  1.3359
17836THY    HM233218   2.961   1.121   7.434 -0.0487  2.1396 -1.3658
17836THY    HM333219   3.088   1.225   7.488 -2.4261  1.6353 -0.8925
17836THY    CA633220   3.241   1.039   7.258 -0.4588 -0.7002 -0.5422
17836THY    HA633221   3.255   0.948   7.316  1.1175 -0.4909 -0.1929
17837THY      O33222   6.935   2.376   7.254  0.6481  0.1818  0.1403
17837THY     HO33223   7.027   2.403   7.235  1.2011  1.7878 -0.4665
17837THY    CA133224   6.938   2.387   7.384  0.2417 -0.2731  0.0781
17837THY    CA233225   6.824   2.418   7.457  0.2657 -0.3314  0.2040
17837THY    CP133226   6.687   2.422   7.392  0.1481 -0.2649 -0.2518
17837THY    HP133227   6.686   2.392   7.286 -2.7992  0.1654 -2.1279
17837THY    CP233228   6.624   2.559   7.395 -0.3369 -0.2167  0.9034
17837THY    HP233229   6.695   2.637   7.365  0.4815 -2.3422 -0.5487
17837THY    HP333230   6.587   2.576   7.497 -1.0718 -0.7622  2.9029
17837THY    HP433231   6.542   2.555   7.323  0.9158 -1.8074  2.2947
17837THY    CP333232   6.595   2.300   7.440  0.3218  0.4488 -0.3328
17837THY    HP533233   6.596   2.306   7.549  0.8877  0.4094  0.4593
17837THY    HP633234   6.644   2.211   7.398 -1.4120 -1.0173 -0.6524
17837THY    HP733235   6.499   2.314   7.389  1.2133 -1.8151 -1.9503
17837THY    CA333236   6.836   2.440   7.600  0.0261  0.0699 -0.1327
17837THY    HA333237   6.749   2.452   7.663 -1.3702 -1.9822  1.2605
17837THY    CA433238   6.960   2.442   7.655 -1.0130 -0.4877  0.2535
17837THY    HA433239   6.969   2.463   7.761  1.1815 -0.2538 -1.4982
17837THY    CA533240   7.075   2.416   7.576  0.3598 -0.2189 -0.4296
17837THY    CM133241   7.204   2.428   7.632 -0.1669  0.0722 -0.5063
17837THY    HM133242   7.212   2.411   7.740 -0.4476  0.7821  3.1097
17837THY    HM233243   7.246   2.528   7.614 -1.4471 -1.6659 -0.2404
17837THY    HM333244   7.272   2.359   7.581 -0.9191  0.3770 -1.5070
17837THY    CA633245   7.062   2.388   7.443  0.2700 -0.3274 -0.1696
17837THY    HA633246   7.153   2.371   7.387  1.2176  1.7193 -2.4487
17838THY      O33247   6.077   7.188   3.343  0.3901  0.2016 -0.0013
17838THY     HO33248   6.122   7.102   3.332  0.1258  0.3264 -0.1578
17838THY    CA133249   5.984   7.198   3.243  1.0203  0.0362  0.0354
17838THY    CA233250   5.869   7.277   3.255  0.8163  0.1545 -0.8539
17838THY    CP133251   5.832   7.350   3.386 -0.0310 -0.4181  0.3975
17838THY    HP133252   5.905   7.321   3.463 -1.4300  1.3329  1.2538
17838THY    CP233253   5.691   7.319   3.436  0.6783  0.2175 -0.0805
17838THY    HP233254   5.680   7.210   3.439 -1.7578  1.5852  0.1453
17838THY    HP333255   5.611   7.370   3.381  2.3126 -0.8263  1.4699
17838THY    HP433256   5.686   7.355   3.539 -2.2500  0.5744 -1.2481
17838THY    CP333257   5.847   7.502   3.369 -0.0009  0.6950 -0.5729
17838THY    HP533258   5.756   7.562   3.356  0.7875  1.3806  0.8375
17838THY    HP633259   5.928   7.527   3.299  0.4033  1.4615  0.3076
17838THY    HP733260   5.883   7.527   3.469  1.5747 -0.2803  1.3817
17838THY    CA333261   5.769   7.270   3.150 -1.0309 -0.3560 -0.3430
17838THY    HA333262   5.665   7.301   3.160 -1.2478 -0.4598 -1.0021
17838THY    CA433263   5.788   7.185   3.038  0.0189 -0.1791 -1.0717
17838THY    HA433264   5.704   7.176   2.970  0.4789 -0.6846 -1.6497
17838THY    CA533265   5.908   7.113   3.021  0.2098 -0.2553 -0.3571
17838THY    CM133266   5.932   7.042   2.898  0.7192  0.7596 -0.3880
17838THY    HM133267   5.982   7.101   2.820 -0.5101 -0.5527 -1.0178
17838THY    HM233268   5.837   7.009   2.855 -0.2222  2.6062 -0.2111
17838THY    HM333269   5.990   6.950   2.909 -1.1768 -0.9722 -1.8923
17838THY    CA633270   6.004   7.115   3.126 -0.9171  0.5549 -0.0519
17838THY    HA633271   6.096   7.058   3.120 -0.1759  2.3820  0.8452
17839THY      O33272   2.001   3.085   2.969 -0.1012 -0.6242  0.1439
17839THY     HO33273   1.988   3.007   3.025  1.1102 -0.0827  0.3013
17839THY    CA133274   1.925   3.180   3.033  0.0891 -0.0505  0.0186
17839THY    CA233275   1.912   3.310   2.981  0.7722  0.4295  0.2774
17839THY    CP133276   1.969   3.350   2.840 -0.3796 -0.2945 -0.0923
17839THY    HP133277   1.986   3.256   2.785  0.8925 -2.7932  1.4932
17839THY    CP233278   2.101   3.421   2.841  0.3995 -0.0653 -0.2836
17839THY    HP233279   2.144   3.412   2.741  1.0872  0.1665  0.3248
17839THY    HP333280   2.186   3.385   2.901  2.3685 -1.3236  1.9543
17839THY    HP433281   2.095   3.529   2.862  1.3384 -0.9624 -0.0427
17839THY    CP333282   1.874   3.434   2.745 -0.4525 -0.3732  0.2898
17839THY    HP533283   1.769   3.404   2.744 -0.6780 -1.3139  1.0718
17839THY    HP633284   1.919   3.438   2.646  0.3916  0.0085  0.4677
17839THY    HP733285   1.865   3.537   2.782 -0.5911 -1.0003  0.5045
17839THY    CA333286   1.830   3.402   3.048 -0.3090  0.2016  0.0874
17839THY    HA333287   1.814   3.504   3.014 -0.8594 -1.9167 -0.6578
17839THY    CA433288   1.759   3.357   3.163  0.2445  1.1324 -0.2981
17839THY    HA433289   1.693   3.424   3.218 -0.6571  1.1719 -1.1853
17839THY    CA533290   1.770   3.228   3.215 -0.1521 -0.0817  0.2260
17839THY    CM133291   1.709   3.200   3.346  0.3663 -0.1597  0.1023
17839THY    HM133292   1.725   3.093   3.366  0.9720 -0.0569  0.2067
17839THY    HM233293   1.603   3.222   3.363  0.7873  3.2739  0.1094
17839THY    HM333294   1.774   3.251   3.419  0.4180 -0.5342  0.5767
17839THY    CA633295   1.847   3.138   3.146 -0.5974  0.5998 -0.2401
17839THY    HA633296   1.853   3.033   3.176  1.8455 -0.1991 -0.3859
17840THY      O33297   2.764   4.408   4.942  0.8711 -0.0649 -0.7311
17840THY     HO33298   2.752   4.349   4.866  1.4132 -1.4125  0.8470
17840THY    CA133299   2.825   4.516   4.890 -0.7379  0.5191 -0.2477
17840THY    CA233300   2.895   4.612   4.964  0.1079  0.4682  0.3185
17840THY    CP133301   2.913   4.598   5.115  0.2090  0.1819  0.8741
17840THY    HP133302   2.825   4.543   5.151 -1.2785 -1.0145  2.3557
17840THY    CP233303   2.920   4.730   5.200  0.3959 -0.7191  0.0165
17840THY    HP233304   2.899   4.712   5.306  1.2213 -0.4862  0.3413
17840THY    HP333305   2.843   4.798   5.162  1.0031 -1.1375  0.4882
17840THY    HP433306   3.018   4.777   5.215 -0.2018 -0.6146  1.2619
17840THY    CP333307   3.033   4.509   5.135  0.1172  0.7598  0.4405
17840THY    HP533308   3.130   4.556   5.111  0.4502  0.3798 -0.4132
17840THY    HP633309   3.030   4.415   5.080 -0.9843  1.9259 -0.2247
17840THY    HP733310   3.052   4.478   5.238 -0.1380  0.9109  0.7737
17840THY    CA333311   2.963   4.719   4.898 -0.8924  0.4111 -0.0157
17840THY    HA333312   3.020   4.790   4.957  0.7907 -1.7743  0.5747
17840THY    CA433313   2.957   4.736   4.757  0.4323  0.1032  0.1471
17840THY    HA433314   3.006   4.821   4.710  1.7405  1.2657  0.0602
17840THY    CA533315   2.891   4.639   4.684  0.1716  0.6994 -0.2311
17840THY    CM133316   2.888   4.648   4.532 -0.1584 -0.4260 -0.1679
17840THY    HM133317   2.986   4.622   4.489 -0.8830 -0.9610 -2.2641
17840THY    HM233318   2.856   4.752   4.519 -0.2577 -0.2947 -0.1818
17840THY    HM333319   2.813   4.578   4.495 -0.2453  1.1165 -0.9241
17840THY    CA633320   2.819   4.531   4.745  0.6195  0.1696  0.1738
17840THY    HA633321   2.753   4.474   4.679  2.0942 -0.2894 -1.0658
17841THY      O33322   6.520   3.833   4.415 -0.0583  0.1469 -0.1088
17841THY     HO33323   6.477   3.891   4.350  3.3388 -1.7323  0.5611
17841THY    CA133324   6.577   3.913   4.514  0.4147  0.3992 -0.0509
17841THY    CA233325   6.675   3.865   4.601 -0.2754 -0.3733  0.1065
17841THY    CP133326   6.722   3.725   4.595  0.2389 -0.3186  0.3294
17841THY    HP133327   6.708   3.685   4.493  2.4380  0.2035 -1.9854
17841THY    CP233328   6.652   3.641   4.710 -0.6203  0.0058  0.6686
17841THY    HP233329   6.721   3.615   4.792  1.0875 -1.7444 -0.6374
17841THY    HP333330   6.607   3.552   4.666 -1.0419 -0.3735  1.0680
17841THY    HP433331   6.563   3.688   4.752 -0.3448  0.7684  0.5230
17841THY    CP333332   6.878   3.704   4.613  0.3478  0.3445  0.5647
17841THY    HP533333   6.916   3.749   4.706 -0.7147  0.5231  1.1081
17841THY    HP633334   6.929   3.747   4.527  0.5322  0.5840  0.8325
17841THY    HP733335   6.903   3.598   4.629 -1.5218 -2.6377 -0.4394
17841THY    CA333336   6.722   3.955   4.700 -0.2374  0.1896  0.0063
17841THY    HA333337   6.797   3.925   4.772  0.3261 -0.8303 -1.1839
17841THY    CA433338   6.690   4.092   4.695  1.0043 -0.3167  0.3479
17841THY    HA433339   6.734   4.163   4.765 -0.4609  0.4717  0.5174
17841THY    CA533340   6.597   4.139   4.601 -0.1669  0.7059  0.8334
17841THY    CM133341   6.543   4.280   4.584 -0.2136  0.6919 -0.0536
17841THY    HM133342   6.443   4.263   4.542  0.3571 -0.3354 -1.0215
17841THY    HM233343   6.599   4.329   4.504 -1.4462 -0.5330 -0.5638
17841THY    HM333344   6.536   4.345   4.672  1.2304  0.5629  0.2961
17841THY    CA633345   6.547   4.052   4.505  0.8145 -0.2169 -0.0559
17841THY    HA633346   6.477   4.091   4.432  0.9435 -0.2890  0.0407
17842THY      O33347   7.390   1.219   6.250  0.7623 -0.2640  0.1013
17842THY     HO33348   7.315   1.175   6.294 -0.0065 -0.2972  1.3279
17842THY    CA133349   7.345   1.342   6.225 -0.1771  0.1846  0.3456
17842THY    CA233350   7.410   1.420   6.129  0.3193 -0.6946 -0.1717
17842THY    CP133351   7.521   1.361   6.040 -0.1890 -0.8547 -0.4716
17842THY    HP133352   7.561   1.266   6.077  0.9895  1.0816  0.7265
17842THY    CP233353   7.643   1.451   6.035  0.3792  0.0156 -0.0256
17842THY    HP233354   7.727   1.397   5.992 -0.8888  0.5348 -2.5486
17842THY    HP333355   7.669   1.494   6.133 -0.3871  0.7403 -1.1689
17842THY    HP433356   7.630   1.539   5.970  2.3509 -0.6985 -0.2261
17842THY    CP333357   7.456   1.344   5.899  0.4745  0.1862 -0.5675
17842THY    HP533358   7.366   1.282   5.894 -1.2804 -2.4607  1.9279
17842THY    HP633359   7.531   1.305   5.828 -0.5001  0.2321 -2.6798
17842THY    HP733360   7.421   1.441   5.862 -0.2709  0.4116 -0.7507
17842THY    CA333361   7.364   1.554   6.103  0.7206  0.1138  0.2541
17842THY    HA333362   7.401   1.621   6.027  2.2405 -0.7956 -1.5254
17842THY    CA433363   7.258   1.599   6.178 -0.0617 -0.1729 -0.6913
17842THY    HA433364   7.231   1.704   6.168  2.7460 -1.3863  0.0057
17842THY    CA533365   7.195   1.518   6.276 -0.0552  0.7258 -0.7877
17842THY    CM133366   7.090   1.576   6.367 -0.0013 -1.2868  0.1197
17842THY    HM133367   7.081   1.682   6.341  1.4840  2.7799  1.4478
17842THY    HM233368   7.120   1.564   6.472 -0.7928 -1.1183 -0.4728
17842THY    HM333369   6.993   1.527   6.354 -1.0003 -0.7058  1.8692
17842THY    CA633370   7.233   1.385   6.296 -0.0637  0.9148 -0.8288
17842THY    HA633371   7.197   1.329   6.381  0.4483  1.4720 -0.3346
17843THY      O33372   5.686   6.707   5.023 -0.4077 -0.3440  0.1630
17843THY     HO33373   5.734   6.759   4.957 -0.2669 -0.4039 -0.0428
17843THY    CA133374   5.631   6.799   5.106  0.7619 -0.5998 -0.5459
17843THY    CA233375   5.543   6.762   5.211 -0.7804 -0.1175  0.1606
17843THY    CP133376   5.514   6.616   5.236 -0.6383  1.0048 -0.0935
17843THY    HP133377   5.535   6.563   5.141 -1.5032  1.2311 -0.8766
17843THY    CP233378   5.362   6.588   5.241 -0.0153  0.3858  0.1567
17843THY    HP233379   5.343   6.506   5.311  2.3853  0.3390 -0.5049
17843THY    HP333380   5.325   6.565   5.141  1.8025 -0.9269  2.4981
17843THY    HP433381   5.303   6.671   5.282  0.0179 -0.5633  0.6604
17843THY    CP333382   5.585   6.567   5.365  0.3610 -0.4364  0.4084
17843THY    HP533383   5.561   6.461   5.381 -0.8212  3.5186  1.0990
17843THY    HP633384   5.540   6.619   5.450 -0.1722 -0.3646 -0.1621
17843THY    HP733385   5.694   6.567   5.355  0.2818 -2.7744 -2.7746
17843THY    CA333386   5.484   6.857   5.292  0.5497  0.3111 -0.1966
17843THY    HA333387   5.411   6.833   5.368 -3.5200 -2.8743  1.0583
17843THY    CA433388   5.518   6.992   5.271 -0.0535  0.2844 -0.3127
17843THY    HA433389   5.473   7.073   5.328  1.2400 -2.0061  2.1943
17843THY    CA533390   5.615   7.026   5.178  0.1819 -0.0231 -0.0936
17843THY    CM133391   5.654   7.166   5.155  0.5479 -0.2771 -0.2147
17843THY    HM133392   5.622   7.193   5.054 -0.8296 -0.4927 -2.3770
17843THY    HM233393   5.763   7.171   5.163  0.5215  0.5656 -0.7129
17843THY    HM333394   5.606   7.233   5.227 -2.1991  1.1376 -3.3815
17843THY    CA633395   5.669   6.930   5.093  0.6172 -0.1010  0.1642
17843THY    HA633396   5.744   6.963   5.022 -0.1565 -0.3174  1.5630
17844THY      O33397   0.565   3.200   3.152 -0.3491 -0.4384 -0.2438
17844THY     HO33398   0.609   3.263   3.093 -2.7866 -0.7257  1.2979
17844THY    CA133399   0.663   3.166   3.248 -0.3379  0.3299 -0.1035
17844THY    CA233400   0.634   3.113   3.375 -0.2462 -0.3476 -0.4606
17844THY    CP133401   0.488   3.086   3.419 -1.0126 -0.2387  0.6826
17844THY    HP133402   0.447   3.032   3.332 -0.9892 -0.8533  1.6298
17844THY    CP233403   0.403   3.209   3.448 -0.1482  0.0740  0.2441
17844THY    HP233404   0.308   3.189   3.498  0.3594  0.7318 -0.6037
17844THY    HP333405   0.382   3.260   3.353 -1.8202  0.7272  0.8408
17844THY    HP433406   0.455   3.288   3.505 -1.1588  0.7803  0.4127
17844THY    CP333407   0.485   2.991   3.535 -0.7590 -0.8455  0.0473
17844THY    HP533408   0.384   2.956   3.558 -0.6104 -1.4782 -0.8232
17844THY    HP633409   0.527   3.041   3.624  0.5220 -0.6813 -1.2431
17844THY    HP733410   0.549   2.902   3.541 -1.1791  1.9089 -0.1623
17844THY    CA333411   0.746   3.077   3.461  0.1304  0.7930 -0.0292
17844THY    HA333412   0.727   3.037   3.560  3.3783  2.5717  2.3333
17844THY    CA433413   0.873   3.104   3.422  0.2507 -0.0303  1.0410
17844THY    HA433414   0.955   3.077   3.488  0.3804 -0.1834  1.0548
17844THY    CA533415   0.892   3.169   3.299  0.0493  0.6273  0.2160
17844THY    CM133416   1.032   3.196   3.269 -0.2900  0.4399  0.2677
17844THY    HM133417   1.099   3.113   3.297  2.0663 -3.1375  0.7515
17844THY    HM233418   1.081   3.287   3.304 -1.0314  1.2402  0.3765
17844THY    HM333419   1.041   3.198   3.160 -3.6852  0.0227 -0.5990
17844THY    CA633420   0.791   3.194   3.212 -0.0030 -0.2844  0.5506
17844THY    HA633421   0.805   3.244   3.116 -1.2006  0.5960  2.7003
17845THY      O33422   5.496   1.014   4.204 -0.0303 -0.2666 -0.0631
17845THY     HO33423   5.478   0.918   4.199 -0.3293  0.6233 -0.0591
17845THY    CA133424   5.375   1.072   4.188 -0.7489  0.1028  0.3653
17845THY    CA233425   5.346   1.201   4.249 -0.3273  0.3747 -0.5410
17845THY    CP133426   5.455   1.274   4.326  0.0230 -0.0951 -0.4062
17845THY    HP133427   5.526   1.198   4.362 -1.9542  0.9267 -1.8550
17845THY    CP233428   5.402   1.345   4.461  0.0517 -0.0393 -0.1448
17845THY    HP233429   5.374   1.268   4.534 -1.6193  1.0219  1.3846
17845THY    HP333430   5.313   1.406   4.441  0.0162  0.2100 -0.1139
17845THY    HP433431   5.485   1.398   4.511 -1.1563  0.5233  1.2906
17845THY    CP333432   5.529   1.381   4.241  0.5752  0.6649  0.1705
17845THY    HP533433   5.592   1.447   4.303 -1.7877  0.8394  2.4580
17845THY    HP633434   5.453   1.448   4.201  1.5599  1.0582  1.5828
17845THY    HP733435   5.582   1.342   4.154  0.1340  0.8985 -0.9580
17845THY    CA333436   5.220   1.261   4.220 -0.7238  0.3332 -0.0750
17845THY    HA333437   5.188   1.358   4.254 -1.5737 -1.2616  0.2411
17845THY    CA433438   5.120   1.194   4.145  0.4517  0.1807 -0.0763
17845THY    HA433439   5.025   1.243   4.127  0.1520  1.5997 -0.0648
17845THY    CA533440   5.151   1.069   4.096 -0.6883  0.5060  0.0384
17845THY    CM133441   5.047   0.997   4.021 -0.1024  0.1280 -0.0102
17845THY    HM133442   4.958   0.973   4.081 -0.6790  0.1798  2.0742
17845THY    HM233443   5.083   0.903   3.978 -2.1250  0.3348 -0.9402
17845THY    HM333444   5.010   1.054   3.935  0.9308 -0.2444  0.1219
17845THY    CA633445   5.270   1.004   4.119 -0.0605  0.0409  0.2794
17845THY    HA633446   5.278   0.902   4.083  1.2185 -0.2250  0.4555
17846THY      O33447   9.182   3.697   6.702  0.1151  0.0799  0.1362
17846THY     HO33448   9.270   3.656   6.711 -0.4746  0.1784 -1.1444
17846THY    CA133449   9.103   3.642   6.796 -0.4951  0.5525 -0.0789
17846THY    CA233450   8.969   3.657   6.790 -0.0973  0.4587 -0.1095
17846THY    CP133451   8.900   3.727   6.668  0.1571  0.4460 -0.0729
17846THY    HP133452   8.977   3.721   6.590  1.2972  1.5455 -0.3966
17846THY    CP233453   8.852   3.863   6.695 -0.3175 -0.4488 -0.0748
17846THY    HP233454   8.786   3.877   6.781  0.6598  0.1771  0.8038
17846THY    HP333455   8.820   3.923   6.609 -1.5566  1.7982  2.7104
17846THY    HP433456   8.940   3.917   6.733  0.8568 -2.1924 -0.6649
17846THY    CP333457   8.775   3.654   6.609  0.2095  0.2638  0.5979
17846THY    HP533458   8.685   3.660   6.671  0.1499  0.0720  1.9901
17846THY    HP633459   8.799   3.549   6.589  0.3362  0.9126  0.5005
17846THY    HP733460   8.744   3.697   6.513  3.3850 -1.7607 -1.2447
17846THY    CA333461   8.895   3.602   6.898 -0.0471 -0.4394  0.3732
17846THY    HA333462   8.787   3.605   6.893  0.0220 -2.0640  1.4546
17846THY    CA433463   8.952   3.542   7.002  0.1936 -0.3694 -0.6449
17846THY    HA433464   8.888   3.506   7.082  1.2533 -0.2276 -2.3236
17846THY    CA533465   9.088   3.518   6.999 -0.1013 -0.6530  0.0829
17846THY    CM133466   9.139   3.421   7.102 -0.4173  0.0269  0.2037
17846THY    HM133467   9.195   3.344   7.047 -0.0160 -1.4410  1.4878
17846THY    HM233468   9.058   3.370   7.155 -0.3428 -1.1064 -1.1706
17846THY    HM333469   9.201   3.468   7.179 -0.4544  0.0569  0.2028
17846THY    CA633470   9.163   3.570   6.894  0.3474 -0.3871  0.6826
17846THY    HA633471   9.269   3.549   6.888  0.2998 -1.6590  0.7530
17847THY      O33472   0.513   2.145   6.773 -0.0473  0.5435  0.0913
17847THY     HO33473   0.430   2.145   6.824  0.2834  1.0895 -0.6953
17847THY    CA133474   0.608   2.116   6.863  0.3777 -0.9150  0.0141
17847THY    CA233475   0.731   2.079   6.819  0.0437 -0.1680 -0.4816
17847THY    CP133476   0.770   2.088   6.672  0.5415  0.4874  0.7457
17847THY    HP133477   0.681   2.121   6.618 -0.6773  1.4159 -0.8685
17847THY    CP233478   0.786   1.945   6.622 -0.4545  0.6979 -0.4772
17847THY    HP233479   0.871   1.895   6.670 -0.4177 -1.0096 -2.1622
17847THY    HP333480   0.788   1.956   6.513 -2.4441  0.8667  2.8185
17847THY    HP433481   0.697   1.889   6.651 -0.0999 -0.8182 -1.9052
17847THY    CP333482   0.888   2.183   6.635  0.1351  0.0376  0.3796
17847THY    HP533483   0.917   2.153   6.533 -0.1400  0.4666 -1.4515
17847THY    HP633484   0.971   2.169   6.704  1.3632 -1.8329 -2.8936
17847THY    HP733485   0.848   2.284   6.645  0.4619  2.5302  0.3011
17847THY    CA333486   0.824   2.035   6.919  0.3241 -0.7944  0.0895
17847THY    HA333487   0.921   1.994   6.890  0.2310 -0.2015 -0.5741
17847THY    CA433488   0.789   2.033   7.052  0.0858 -0.4386 -0.4062
17847THY    HA433489   0.863   1.997   7.123  0.1888 -1.0076 -1.3724
17847THY    CA533490   0.659   2.072   7.089 -0.8140 -0.9060  0.1842
17847THY    CM133491   0.613   2.055   7.233 -0.5963 -0.3120 -0.1896
17847THY    HM133492   0.665   2.102   7.317 -0.8433 -0.3252  0.1073
17847THY    HM233493   0.620   1.952   7.272  1.8165  2.1519  0.7798
17847THY    HM333494   0.509   2.088   7.240 -0.3147  2.1199  0.3577
17847THY    CA633495   0.573   2.114   6.995  0.0770 -0.0414 -0.2247
17847THY    HA633496   0.469   2.134   7.018 -0.0847 -2.2154  1.9280
17848THY      O33497   7.565   5.099   6.141  0.0872  0.2301  0.4249
17848THY     HO33498   7.566   5.017   6.193  1.2428  0.1814  0.3830
17848THY    CA133499   7.488   5.089   6.037 -0.5171  0.7103  0.1640
17848THY    CA233500   7.420   5.200   5.986  0.6726 -0.6969 -0.4503
17848THY    CP133501   7.438   5.348   6.026 -0.5019 -0.8846  0.3417
17848THY    HP133502   7.496   5.358   6.119 -1.8765  0.2356 -1.4238
17848THY    CP233503   7.306   5.405   6.064 -0.2495  0.1724 -0.4074
17848THY    HP233504   7.262   5.455   5.977 -2.5858  1.3104 -0.3005
17848THY    HP333505   7.317   5.480   6.144 -1.9655 -1.1095  1.3035
17848THY    HP433506   7.239   5.324   6.096  0.6567 -1.3359 -1.8098
17848THY    CP333507   7.515   5.426   5.916 -0.0508  0.5300 -0.2495
17848THY    HP533508   7.616   5.385   5.900 -0.3361  0.5301 -0.9705
17848THY    HP633509   7.520   5.534   5.935  0.2857  0.3412 -0.2318
17848THY    HP733510   7.469   5.423   5.817  0.7957  0.1358 -2.6900
17848THY    CA333511   7.322   5.178   5.886  0.9479 -0.2636  0.1160
17848THY    HA333512   7.268   5.263   5.845  0.5973  1.3395  0.6961
17848THY    CA433513   7.305   5.050   5.830 -0.1300  0.6240 -0.4180
17848THY    HA433514   7.219   5.038   5.764 -0.1460 -0.1152  2.7390
17848THY    CA533515   7.377   4.941   5.887  0.2277 -0.8154  0.0334
17848THY    CM133516   7.352   4.794   5.848 -0.1346  0.6465  0.4756
17848THY    HM133517   7.440   4.749   5.801  0.4586  0.3261  1.9103
17848THY    HM233518   7.275   4.789   5.770  1.1808 -0.6928  0.4974
17848THY    HM333519   7.324   4.732   5.935  0.6936  0.5690 -0.0251
17848THY    CA633520   7.472   4.959   5.985 -0.1582 -0.9263  0.6590
17848THY    HA633521   7.522   4.873   6.028  2.2800  0.4054  2.5954
17849THY      O33522   2.693   5.985   5.495 -0.2770  0.3835  0.1048
17849THY     HO33523   2.759   6.030   5.552  3.2961 -0.9753 -2.9414
17849THY    CA133524   2.779   5.930   5.407 -0.1091 -0.0585  0.0608
17849THY    CA233525   2.755   5.941   5.271  0.3134  0.2897 -0.1338
17849THY    CP133526   2.617   5.999   5.215 -0.0958  0.6576  0.2047
17849THY    HP133527   2.554   6.037   5.297 -2.3510 -0.5048 -0.8051
17849THY    CP233528   2.533   5.892   5.139  0.5317  0.1428  0.3515
17849THY    HP233529   2.587   5.831   5.065  0.0155 -1.8159  2.1350
17849THY    HP333530   2.440   5.925   5.090  0.0886 -2.1962 -3.7230
17849THY    HP433531   2.504   5.817   5.213  2.6723  0.3591 -0.3218
17849THY    CP333532   2.647   6.112   5.118  0.7789  0.2878 -0.5205
17849THY    HP533533   2.703   6.085   5.028 -0.8215 -0.8441 -0.2497
17849THY    HP633534   2.704   6.189   5.171 -1.3506  0.5706  0.9349
17849THY    HP733535   2.553   6.158   5.086 -0.2201  0.3560 -2.3972
17849THY    CA333536   2.859   5.898   5.190  0.8026 -0.2166  0.6758
17849THY    HA333537   2.849   5.916   5.083  1.3020 -0.3747  0.0529
17849THY    CA433538   2.988   5.862   5.238  0.1181  0.8457  0.1465
17849THY    HA433539   3.068   5.840   5.169 -0.1098  0.4158  0.6413
17849THY    CA533540   3.007   5.854   5.375 -0.0435  0.8363  0.1847
17849THY    CM133541   3.135   5.816   5.432  0.0681 -0.1442 -0.6517
17849THY    HM133542   3.190   5.909   5.444 -0.7429 -0.7399 -0.0828
17849THY    HM233543   3.186   5.745   5.366  1.4075 -0.4434  0.5670
17849THY    HM333544   3.118   5.777   5.534 -1.5109 -0.0231  0.2532
17849THY    CA633545   2.898   5.883   5.457 -0.1384  0.4440  0.3091
17849THY    HA633546   2.912   5.878   5.565 -2.7607  0.8496  0.3654
17850THY      O33547   2.718   3.303   7.466  0.1656 -0.2654 -0.0750
17850THY     HO33548   2.627   3.331   7.487  0.5877  0.1883  1.0195
17850THY    CA133549   2.742   3.217   7.568 -0.1305  0.0380 -0.2638
17850THY    CA233550   2.873   3.187   7.610  0.3482 -0.3286 -0.2840
17850THY    CP133551   2.989   3.249   7.536 -0.2245  0.2592 -0.0319
17850THY    HP133552   2.966   3.337   7.475 -1.3810 -1.5679 -1.5091
17850THY    CP233553   3.054   3.146   7.444  0.1112  0.3766 -0.1939
17850THY    HP233554   3.112   3.077   7.507 -1.9175  1.2302 -1.2048
17850THY    HP333555   3.125   3.195   7.377  1.5418  2.4215  0.6545
17850THY    HP433556   2.980   3.092   7.383 -1.4862 -0.4811  2.7457
17850THY    CP333557   3.078   3.309   7.634  0.0486 -0.1920  0.0196
17850THY    HP533558   3.022   3.371   7.706 -0.4203 -0.4338 -0.1190
17850THY    HP633559   3.154   3.374   7.590  1.3012  2.4851  0.4928
17850THY    HP733560   3.141   3.236   7.686  2.7203 -1.1865  1.4879
17850THY    CA333561   2.896   3.096   7.713 -0.1781  0.2677  0.3372
17850THY    HA333562   2.994   3.075   7.755 -1.0407  1.9766 -0.3669
17850THY    CA433563   2.781   3.045   7.778 -0.1408  0.0462 -0.5266
17850THY    HA433564   2.792   2.976   7.861  0.8171 -0.0760 -0.5261
17850THY    CA533565   2.652   3.061   7.725 -0.2040  0.0507 -0.4613
17850THY    CM133566   2.527   3.001   7.794 -0.4239  0.1036  0.1373
17850THY    HM133567   2.456   2.959   7.721 -1.3391  0.6521  0.6995
17850THY    HM233568   2.485   3.082   7.854  2.6681 -1.1811  2.9377
17850THY    HM333569   2.560   2.920   7.860 -0.5823 -0.9544 -0.8293
17850THY    CA633570   2.633   3.151   7.616  0.2213 -0.4642 -0.4403
17850THY    HA633571   2.527   3.163   7.595 -0.6520  2.7682 -1.2424
17851THY      O33572   8.531   6.932   7.414 -0.4076  0.0370 -0.2582
17851THY     HO33573   8.605   6.899   7.468  1.3616 -2.8098 -1.2542
17851THY    CA133574   8.552   7.061   7.398  0.3182 -0.6590  0.1400
17851THY    CA233575   8.460   7.157   7.357  0.2360  0.0912 -0.0948
17851THY    CP133576   8.323   7.118   7.321  0.0532  0.6274  0.1132
17851THY    HP133577   8.299   7.013   7.342  1.1954 -1.4788 -0.6239
17851THY    CP233578   8.312   7.129   7.169  0.0407 -0.5643 -0.2498
17851THY    HP233579   8.220   7.078   7.139 -1.2282 -1.9378  2.6195
17851THY    HP333580   8.393   7.080   7.113  0.1555 -0.3278 -0.3281
17851THY    HP433581   8.300   7.235   7.143  1.8284 -0.3604  0.0447
17851THY    CP333582   8.215   7.201   7.382 -0.2445 -0.6183  0.4395
17851THY    HP533583   8.229   7.170   7.486  1.0794 -1.8407 -3.6831
17851THY    HP633584   8.116   7.162   7.353 -0.1854 -1.0035  0.5654
17851THY    HP733585   8.218   7.308   7.360  1.7891 -0.5191  0.4384
17851THY    CA333586   8.506   7.296   7.354  0.6961 -0.7716  0.3132
17851THY    HA333587   8.442   7.376   7.319 -1.5875  1.7598 -0.2705
17851THY    CA433588   8.635   7.331   7.397  0.3923 -0.5342  0.1747
17851THY    HA433589   8.656   7.438   7.401  0.2765  1.9685  0.1568
17851THY    CA533590   8.726   7.235   7.433 -0.3432 -0.2958  0.5163
17851THY    CM133591   8.864   7.262   7.452  0.8992  0.1161 -0.6768
17851THY    HM133592   8.894   7.367   7.465 -1.1491  1.6652 -0.2186
17851THY    HM233593   8.925   7.243   7.363  1.4255  0.1385  0.7614
17851THY    HM333594   8.905   7.210   7.539  0.0033  0.6558 -0.5089
17851THY    CA633595   8.687   7.101   7.431  0.6022  0.2756  0.0322
17851THY    HA633596   8.752   7.026   7.476 -0.8499  2.3739 -0.0724
17852THY      O33597   3.577   5.794   7.601 -0.3727 -0.5131 -0.1492
17852THY     HO33598   3.498   5.817   7.549 -1.1800  0.6502 -0.1430
17852THY    CA133599   3.671   5.887   7.588  0.1465  0.3029  0.6738
17852THY    CA233600   3.806   5.848   7.587 -0.2651  0.0261 -0.5683
17852THY    CP133601   3.848   5.700   7.608 -0.0734 -0.1955  0.4788
17852THY    HP133602   3.766   5.636   7.644 -0.0127  1.0034  1.0518
17852THY    CP233603   3.962   5.683   7.711 -0.6000  0.1008  0.2748
17852THY    HP233604   3.950   5.596   7.776 -1.6188  0.0997  0.4067
17852THY    HP333605   3.970   5.773   7.774  1.4433  0.2511  0.0225
17852THY    HP433606   4.059   5.682   7.660  0.4936  1.9807  2.0816
17852THY    CP333607   3.896   5.644   7.472 -0.0358  1.1016  0.3983
17852THY    HP533608   3.947   5.550   7.495 -0.4060  1.6133  0.3228
17852THY    HP633609   3.965   5.715   7.424 -1.7437  0.5235  1.7501
17852THY    HP733610   3.812   5.634   7.403 -0.4951  1.5632  0.9859
17852THY    CA333611   3.908   5.941   7.562  0.0133  0.6792 -0.3158
17852THY    HA333612   4.012   5.911   7.550  0.6868  2.2381  1.2494
17852THY    CA433613   3.867   6.067   7.536 -0.7809  0.8853 -0.2402
17852THY    HA433614   3.941   6.144   7.515 -2.1335  0.7323  1.0563
17852THY    CA533615   3.731   6.107   7.539  1.0770  0.1874  0.3437
17852THY    CM133616   3.691   6.248   7.503 -0.0847 -0.3757 -0.6069
17852THY    HM133617   3.771   6.297   7.446 -0.4525 -1.9007 -1.6872
17852THY    HM233618   3.666   6.298   7.597 -2.9577  0.8082 -3.8571
17852THY    HM333619   3.610   6.260   7.429  1.3935 -1.7597  1.7398
17852THY    CA633620   3.629   6.016   7.563 -0.2368 -0.1482  0.2009
17852THY    HA633621   3.526   6.050   7.560  0.0638  2.0243  1.4644
17853THY      O33622   3.774   5.822   7.018  0.4381  0.1725 -0.1121
17853THY     HO33623   3.785   5.726   7.010 -2.2259 -2.3422 -0.3177
17853THY    CA133624   3.885   5.883   6.978  0.9703  0.1501 -0.1268
17853THY    CA233625   3.885   6.022   6.969 -1.0062  1.5466 -0.4791
17853THY    CP133626   3.768   6.101   7.036  0.1538 -0.4783  0.1111
17853THY    HP133627   3.670   6.054   7.023 -0.2833  1.2874  0.4762
17853THY    CP233628   3.757   6.242   6.975  0.1808  0.3803  0.0454
17853THY    HP233629   3.731   6.232   6.869  1.7479 -0.0697  0.4810
17853THY    HP333630   3.839   6.312   6.987 -1.0350  2.6922  1.1849
17853THY    HP433631   3.668   6.295   7.012  0.5389 -0.2852  1.1190
17853THY    CP333632   3.790   6.105   7.183  0.4854 -0.1036 -0.3499
17853THY    HP533633   3.869   6.174   7.213 -0.5050  1.1688  0.2664
17853THY    HP633634   3.829   6.008   7.217 -0.2509 -1.2553 -1.0808
17853THY    HP733635   3.700   6.127   7.241  1.4630  0.2787  3.1267
17853THY    CA333636   4.005   6.086   6.919  0.5422 -0.2518 -0.0914
17853THY    HA333637   4.020   6.193   6.922 -0.3215 -0.3209  0.0348
17853THY    CA433638   4.116   6.001   6.898 -0.8122 -0.7043 -0.3157
17853THY    HA433639   4.212   6.048   6.879  0.1812  1.3818 -1.3646
17853THY    CA533640   4.117   5.866   6.925  1.1397 -0.1663 -0.5191
17853THY    CM133641   4.242   5.784   6.925 -0.4766 -0.3820 -0.1081
17853THY    HM133642   4.242   5.674   6.924  1.0165 -1.5056 -0.1255
17853THY    HM233643   4.312   5.815   7.003 -1.4390  0.2226  0.6064
17853THY    HM333644   4.281   5.814   6.827 -0.2346 -0.7402 -1.5047
17853THY    CA633645   3.999   5.809   6.970 -0.0573  0.2862 -0.1716
17853THY    HA633646   4.003   5.700   6.973  4.7513 -1.5185 -0.2850
17854THY      O33647   7.617   8.443   4.029 -0.6040  0.1707  0.3375
17854THY     HO33648   7.643   8.372   4.091  0.2941 -3.7953 -3.2176
17854THY    CA133649   7.497   8.407   3.973 -0.1752 -0.7657  0.2510
17854THY    CA233650   7.422   8.505   3.905 -0.6995 -0.3331  0.1838
17854THY    CP133651   7.471   8.651   3.915 -0.0301 -0.1928 -0.6188
17854THY    HP133652   7.579   8.645   3.896 -0.2230 -1.1431 -1.4886
17854THY    CP233653   7.445   8.722   4.056  0.3549 -0.2023 -0.2381
17854THY    HP233654   7.495   8.657   4.129  0.1828 -1.3388 -1.7099
17854THY    HP333655   7.336   8.722   4.064  0.3338 -0.2993 -1.2354
17854THY    HP433656   7.487   8.823   4.059 -0.3915 -1.1402  0.1134
17854THY    CP333657   7.427   8.749   3.805  0.1902 -0.2678 -0.4740
17854THY    HP533658   7.320   8.765   3.821  0.6632  0.3978  2.4923
17854THY    HP633659   7.438   8.707   3.704  0.3438  0.2967 -1.8696
17854THY    HP733660   7.480   8.845   3.805  0.7439  0.5740 -0.7618
17854THY    CA333661   7.313   8.459   3.827  0.5285  0.7333 -0.1569
17854THY    HA333662   7.248   8.528   3.776  0.9904 -0.3406 -0.4842
17854THY    CA433663   7.287   8.325   3.820 -0.2663 -0.2214 -0.6371
17854THY    HA433664   7.215   8.291   3.747 -1.6158 -0.4141  2.3172
17854THY    CA533665   7.355   8.237   3.897 -0.0306  0.0327  0.3169
17854THY    CM133666   7.343   8.089   3.889 -0.3996 -0.6280  0.1167
17854THY    HM133667   7.437   8.046   3.854 -1.2832 -3.0707 -0.0110
17854THY    HM233668   7.273   8.062   3.808  0.3057 -1.4882  0.8168
17854THY    HM333669   7.312   8.045   3.984  0.9059 -1.0753 -1.8796
17854THY    CA633670   7.462   8.276   3.979 -0.6114  0.4847  0.3024
17854THY    HA633671   7.519   8.199   4.030  0.1350 -1.4880 -0.5225
17855THY      O33672   2.826   1.706   3.856  0.0165 -0.1906  0.1147
17855THY     HO33673   2.772   1.776   3.897 -1.6769 -0.0262 -1.1984
17855THY    CA133674   2.751   1.601   3.897  0.3614  0.3893 -0.0730
17855THY    CA233675   2.799   1.469   3.907 -0.4852 -0.2754 -0.1028
17855THY    CP133676   2.945   1.443   3.877 -0.4207  0.3448  0.0212
17855THY    HP133677   2.993   1.537   3.906  0.4380  1.5875 -0.7680
17855THY    CP233678   2.950   1.420   3.727  0.0560 -0.7270  0.3044
17855THY    HP233679   3.054   1.402   3.694  0.2939  0.0689  0.1689
17855THY    HP333680   2.914   1.507   3.671  2.8874 -0.6717  1.6267
17855THY    HP433681   2.893   1.329   3.704  0.9434  0.4427 -0.5926
17855THY    CP333682   3.002   1.326   3.955 -0.6031 -0.9206 -0.0387
17855THY    HP533683   2.979   1.232   3.904 -1.7611 -0.3290 -0.1061
17855THY    HP633684   2.963   1.328   4.058 -0.1021 -0.7232 -0.3228
17855THY    HP733685   3.111   1.330   3.959 -0.6715  1.0764  1.4893
17855THY    CA333686   2.709   1.366   3.937  0.9655 -0.7982 -0.0404
17855THY    HA333687   2.750   1.265   3.932  0.7948 -2.7938 -0.0582
17855THY    CA433688   2.572   1.393   3.954 -0.0845 -0.1264 -0.0748
17855THY    HA433689   2.499   1.313   3.962  0.0955 -2.8802 -0.6134
17855THY    CA533690   2.534   1.526   3.952  0.3610 -0.0093 -0.2787
17855THY    CM133691   2.383   1.545   3.971 -0.2755  0.5019  0.2876
17855THY    HM133692   2.338   1.495   4.057  0.6611  0.1773 -1.1794
17855THY    HM233693   2.335   1.497   3.885 -0.0296  0.8220 -0.5501
17855THY    HM333694   2.352   1.649   3.984  2.5827  0.2620  1.2651
17855THY    CA633695   2.622   1.633   3.933  0.4766  0.0104  0.2149
17855THY    HA633696   2.591   1.735   3.912  0.1444 -0.8777 -0.0659
17856THY      O33697   5.395   8.178   6.855 -0.3575  0.3383 -0.4445
17856THY     HO33698   5.481   8.201   6.815 -1.1112 -0.7466  0.6270
17856THY    CA133699   5.297   8.217   6.758  0.1350 -0.4187  0.0154
17856THY    CA233700   5.169   8.157   6.759  0.9239  0.4116  0.0731
17856THY    CP133701   5.131   8.063   6.877  0.8364 -0.0414  0.5040
17856THY    HP133702   5.168   8.097   6.975  0.9107 -0.4016  1.4837
17856THY    CP233703   5.172   7.922   6.846 -0.8724 -0.2333  0.2645
17856THY    HP233704   5.147   7.849   6.923 -3.6698 -1.0836  0.1892
17856THY    HP333705   5.281   7.927   6.848 -0.8698  1.4282 -0.0622
17856THY    HP433706   5.120   7.895   6.753 -0.3416 -0.4127 -0.1678
17856THY    CP333707   4.981   8.062   6.900 -0.9420 -0.2418 -0.1888
17856THY    HP533708   4.964   8.001   6.990  1.2312  1.4050  1.4525
17856THY    HP633709   4.928   8.016   6.816 -1.0448  0.8920 -2.2471
17856THY    HP733710   4.941   8.162   6.923  0.4463 -0.3761  0.4239
17856THY    CA333711   5.086   8.183   6.643  0.2355 -0.2038  0.2849
17856THY    HA333712   4.986   8.139   6.639  0.6711 -0.2830 -0.7426
17856THY    CA433713   5.137   8.269   6.542  0.2787 -0.4756  0.0879
17856THY    HA433714   5.070   8.284   6.458 -0.8386  0.3001 -0.4174
17856THY    CA533715   5.262   8.330   6.548 -0.2805 -0.2759  0.1883
17856THY    CM133716   5.308   8.423   6.440 -0.1779 -0.4952 -0.6106
17856THY    HM133717   5.392   8.483   6.477 -0.3464 -1.9017  0.5416
17856THY    HM233718   5.224   8.485   6.407 -0.0087  0.6727  0.2836
17856THY    HM333719   5.336   8.369   6.349 -0.1366  0.4216 -2.2008
17856THY    CA633720   5.337   8.306   6.664 -0.5357 -0.0501  0.4602
17856THY    HA633721   5.430   8.361   6.675 -1.0633  1.3245  1.1120
17857THY      O33722   5.049   8.296   7.652  0.7894  0.1239 -0.4295
17857THY     HO33723   4.990   8.232   7.610 -0.5262  0.1783  0.7115
17857THY    CA133724   5.157   8.317   7.571 -0.6639  1.0471 -0.0672
17857THY    CA233725   5.268   8.395   7.606  0.3310  0.0522 -0.3398
17857THY    CP133726   5.272   8.463   7.748  0.7578  0.0078 -0.4480
17857THY    HP133727   5.191   8.417   7.807 -3.9785 -0.9304  5.4325
17857THY    CP233728   5.255   8.612   7.741  0.4191  0.4303 -0.0481
17857THY    HP233729   5.152   8.623   7.705  0.2360  1.3812  1.6102
17857THY    HP333730   5.335   8.645   7.674  0.0462  0.4402  0.9107
17857THY    HP433731   5.263   8.650   7.843  1.2922  0.6290 -0.7361
17857THY    CP333732   5.406   8.439   7.832 -0.3237  0.6090  0.2385
17857THY    HP533733   5.485   8.463   7.759  1.8469  2.8493  0.3519
17857THY    HP633734   5.423   8.332   7.849  1.1722 -0.2638  0.2984
17857THY    HP733735   5.411   8.505   7.919  0.3638  0.5424  0.2848
17857THY    CA333736   5.373   8.411   7.514 -0.1147  0.5235  0.0511
17857THY    HA333737   5.461   8.469   7.540  0.3857 -0.3344 -0.2963
17857THY    CA433738   5.367   8.366   7.385  0.0399 -0.4892 -0.1085
17857THY    HA433739   5.449   8.378   7.315  0.3659 -0.3686 -1.4981
17857THY    CA533740   5.249   8.296   7.349 -0.1611  0.1751  0.7706
17857THY    CM133741   5.235   8.239   7.204 -0.1665 -0.4304  0.2079
17857THY    HM133742   5.279   8.307   7.131  1.7405 -0.2833 -0.7855
17857THY    HM233743   5.135   8.209   7.171 -0.1344 -0.5613  0.2447
17857THY    HM333744   5.287   8.143   7.193 -0.6397 -1.0116  0.0137
17857THY    CA633745   5.156   8.263   7.445 -0.1038 -0.5146  0.2871
17857THY    HA633746   5.091   8.179   7.422  0.3261 -0.0408 -0.1855
17858THY      O33747   2.539   8.799   7.194 -0.3139  0.0491  0.6446
17858THY     HO33748   2.607   8.736   7.163 -1.6030 -1.3008 -0.1613
17858THY    CA133749   2.438   8.714   7.195 -0.2290 -1.1698 -0.2866
17858THY    CA233750   2.311   8.743   7.254 -0.2677 -0.5271  0.5392
17858THY    CP133751   2.291   8.881   7.310 -0.6665  0.9279  0.0813
17858THY    HP133752   2.371   8.906   7.381  0.5083  0.0883 -1.1343
17858THY    CP233753   2.159   8.895   7.381  0.7886 -0.1371  0.4031
17858THY    HP233754   2.138   9.001   7.400 -0.5680  0.9052 -0.0250
17858THY    HP333755   2.153   8.838   7.474 -0.9770  0.2107  1.0832
17858THY    HP433756   2.083   8.862   7.310  0.4566  0.0782  0.7021
17858THY    CP333757   2.295   8.988   7.196  0.4052 -0.3738  0.4603
17858THY    HP533758   2.206   8.984   7.132  1.3974 -1.7571 -0.5476
17858THY    HP633759   2.379   8.971   7.128  1.3782  0.4647  1.7402
17858THY    HP733760   2.318   9.088   7.234  1.9714 -1.9664  0.7647
17858THY    CA333761   2.212   8.637   7.255 -0.5720  1.1217  1.2160
17858THY    HA333762   2.114   8.646   7.301 -0.1992  2.7769 -1.8708
17858THY    CA433763   2.243   8.513   7.194 -0.3386  0.0918 -0.1531
17858THY    HA433764   2.165   8.438   7.185 -0.2692  0.0558 -0.2207
17858THY    CA533765   2.371   8.496   7.143  0.3470 -0.1438  0.1006
17858THY    CM133766   2.387   8.359   7.065 -0.2582 -0.1976 -0.4886
17858THY    HM133767   2.362   8.270   7.124  0.4686  0.2466 -0.4011
17858THY    HM233768   2.492   8.345   7.037 -0.0438  0.7814 -0.9385
17858THY    HM333769   2.326   8.366   6.974 -0.0360 -0.3590 -0.6335
17858THY    CA633770   2.469   8.589   7.142  0.0307 -0.2221 -0.1712
17858THY    HA633771   2.560   8.568   7.087 -0.3802 -1.0246  0.1192
17859THY      O33772   6.392   7.065   7.414 -0.2120 -0.2765  0.6175
17859THY     HO33773   6.372   7.154   7.446  2.4501  1.6494  0.6447
17859THY    CA133774   6.320   7.041   7.301 -0.2915  0.3213 -0.7726
17859THY    CA233775   6.251   6.922   7.274  0.7220  0.1159  0.5879
17859THY    CP133776   6.256   6.808   7.377 -0.3887 -0.4321  0.2943
17859THY    HP133777   6.267   6.837   7.482  0.6801 -0.0847 -1.2476
17859THY    CP233778   6.371   6.711   7.341 -0.5107 -0.3250  1.1972
17859THY    HP233779   6.368   6.670   7.240  1.9895 -0.9435  2.3173
17859THY    HP333780   6.390   6.633   7.415  3.6491 -1.1234  1.1956
17859THY    HP433781   6.462   6.771   7.359  0.2408 -2.5222  0.8072
17859THY    CP333782   6.120   6.725   7.371 -0.6352 -0.3754  0.2687
17859THY    HP533783   6.028   6.781   7.393 -0.6224 -1.5566  0.7814
17859THY    HP633784   6.109   6.655   7.455  1.4581  1.0347  1.5135
17859THY    HP733785   6.110   6.676   7.274  0.7634 -1.4851  2.0700
17859THY    CA333786   6.207   6.903   7.140 -0.1503  0.4650  0.1050
17859THY    HA333787   6.153   6.812   7.117 -0.1782  1.1153 -0.0443
17859THY    CA433788   6.216   7.007   7.042 -0.6813  0.1233 -0.3223
17859THY    HA433789   6.184   6.991   6.940 -2.5228  0.8555 -1.6483
17859THY    CA533790   6.280   7.130   7.079 -0.5448  0.1107 -0.0828
17859THY    CM133791   6.309   7.241   6.977  0.0312  0.0819 -0.6782
17859THY    HM133792   6.404   7.230   6.924 -0.6547 -1.4547  0.4325
17859THY    HM233793   6.312   7.340   7.022  2.0168 -1.4804  0.0438
17859THY    HM333794   6.233   7.237   6.897 -0.3036  0.3564  0.0184
17859THY    CA633795   6.326   7.145   7.208 -0.1281 -0.7184  0.3131
17859THY    HA633796   6.384   7.233   7.231 -0.1632 -1.9997  0.6817
17860THY      O33797   9.551   1.965   3.201 -0.0331  0.0691 -0.1131
17860THY     HO33798   9.559   2.062   3.200  2.4232 -1.4209 -0.2234
17860THY    CA133799   9.423   1.936   3.224  0.2345 -0.1279  0.0514
17860THY    CA233800   9.371   1.804   3.209 -0.4730 -1.2245 -0.1728
17860THY    CP133801   9.466   1.687   3.186  0.2156 -0.6817  0.2670
17860THY    HP133802   9.548   1.720   3.122  0.2074 -0.8922 -0.1103
17860THY    CP233803   9.405   1.571   3.095  0.7244 -0.9089  0.0495
17860THY    HP233804   9.356   1.622   3.012 -0.3183 -0.9935 -1.0379
17860THY    HP333805   9.329   1.509   3.145 -0.1368 -2.2811 -0.0414
17860THY    HP433806   9.476   1.497   3.057 -0.1632 -0.4196 -1.0917
17860THY    CP333807   9.520   1.617   3.311 -0.6108  0.9724 -0.3197
17860THY    HP533808   9.433   1.596   3.374 -1.3873  0.4285  1.0395
17860THY    HP633809   9.589   1.687   3.359 -1.1965  0.4132  0.6673
17860THY    HP733810   9.569   1.523   3.283 -0.5139  0.0715 -0.0191
17860THY    CA333811   9.229   1.781   3.219 -0.0094 -0.6882 -0.6037
17860THY    HA333812   9.183   1.684   3.206  0.3386 -0.1240 -0.8530
17860THY    CA433813   9.148   1.893   3.238 -0.4025  0.1517 -0.0613
17860THY    HA433814   9.041   1.884   3.248 -0.3841  1.2728  0.7662
17860THY    CA533815   9.201   2.021   3.259 -0.4718 -0.4437  0.7442
17860THY    CM133816   9.115   2.139   3.266 -0.1140 -0.2925 -0.6095
17860THY    HM133817   9.005   2.137   3.263 -0.3144 -0.2220  2.9096
17860THY    HM233818   9.148   2.191   3.175  1.1708 -1.2619 -2.9739
17860THY    HM333819   9.148   2.195   3.354  0.6799  0.7546 -2.6336
17860THY    CA633820   9.342   2.042   3.257 -0.3136  0.1691 -0.7452
17860THY    HA633821   9.378   2.145   3.260 -1.1603 -0.7462 -0.4005
17861THY      O33822   5.677   2.535   5.518 -0.1425 -0.4701 -0.0764
17861THY     HO33823   5.741   2.464   5.499  1.6477  2.1736  0.6821
17861THY    CA133824   5.688   2.545   5.653  1.1163 -0.4378 -0.2440
17861THY    CA233825   5.570   2.577   5.726  1.5650 -0.4136 -0.3566
17861THY    CP133826   5.438   2.609   5.647  0.2490  0.3205 -0.4753
17861THY    HP133827   5.460   2.635   5.543 -0.0872  1.0880  3.5051
17861THY    CP233828   5.356   2.738   5.691 -0.4624 -0.5265 -0.2120
17861THY    HP233829   5.335   2.737   5.799 -1.3932 -0.6740  1.4914
17861THY    HP333830   5.259   2.742   5.642 -0.6945 -0.0101  0.6478
17861THY    HP433831   5.420   2.824   5.670 -1.9748  1.7098  1.5648
17861THY    CP333832   5.348   2.493   5.655  0.6096  0.2563  0.4080
17861THY    HP533833   5.312   2.480   5.758  2.1295  0.8333  0.5476
17861THY    HP633834   5.397   2.395   5.642  1.1311 -0.1118  0.7141
17861THY    HP733835   5.263   2.507   5.588 -0.3418  1.4863  0.6906
17861THY    CA333836   5.571   2.580   5.868 -0.1868 -0.3585  0.1931
17861THY    HA333837   5.477   2.604   5.916 -0.0455 -0.3819  0.8121
17861THY    CA433838   5.688   2.538   5.934 -0.1297 -0.5983 -0.2706
17861THY    HA433839   5.686   2.537   6.043 -0.9184 -0.6036  0.0912
17861THY    CA533840   5.805   2.505   5.860 -0.5238  0.1547  0.2938
17861THY    CM133841   5.926   2.454   5.933  1.2962  0.7258 -0.2081
17861THY    HM133842   5.905   2.449   6.040 -0.1426  0.4894  0.3162
17861THY    HM233843   6.012   2.518   5.910  1.0417  2.7570  0.9547
17861THY    HM333844   5.952   2.353   5.899 -0.8810 -0.3890 -0.4635
17861THY    CA633845   5.805   2.512   5.722 -0.4501 -0.0775  0.2125
17861THY    HA633846   5.890   2.472   5.667 -0.1465 -0.0470  0.8063
17862THY      O33847   3.087   4.109   2.701  0.3971 -0.2870  0.9161
17862THY     HO33848   3.015   4.053   2.669  0.4288  0.1036  0.6475
17862THY    CA133849   3.117   4.052   2.825 -0.3931  0.7712 -0.3331
17862THY    CA233850   3.194   4.110   2.924  0.5380 -0.0079 -0.5304
17862THY    CP133851   3.247   4.250   2.905 -0.2794 -0.4509 -0.0818
17862THY    HP133852   3.302   4.244   2.810  0.6141  0.1325 -1.8974
17862THY    CP233853   3.360   4.297   3.008  0.0779  0.4367  0.2570
17862THY    HP233854   3.441   4.223   3.012  0.6054  0.3079  0.8199
17862THY    HP333855   3.324   4.315   3.109  0.0119  0.4728 -0.0698
17862THY    HP433856   3.393   4.399   2.987 -1.2195  1.0767  0.8228
17862THY    CP333857   3.134   4.356   2.897 -0.3256  0.3157 -1.0562
17862THY    HP533858   3.101   4.385   2.998 -0.5749 -0.3177  1.0112
17862THY    HP633859   3.036   4.320   2.866 -0.2268 -0.5759 -0.5715
17862THY    HP733860   3.167   4.443   2.840 -2.7166  0.2545 -0.1183
17862THY    CA333861   3.220   4.048   3.043 -0.0976 -0.2159  0.0240
17862THY    HA333862   3.278   4.097   3.119 -0.0550 -0.7178  0.7636
17862THY    CA433863   3.170   3.918   3.061  0.6525 -1.3287  0.6315
17862THY    HA433864   3.190   3.861   3.151 -2.4325 -0.2891  1.0120
17862THY    CA533865   3.092   3.856   2.970 -0.4541  0.3320 -0.2205
17862THY    CM133866   3.056   3.715   2.985 -0.5995  0.2288  0.8635
17862THY    HM133867   2.974   3.670   2.928 -0.0660 -1.0761  1.5011
17862THY    HM233868   3.036   3.702   3.092 -2.6825 -0.3352 -1.4255
17862THY    HM333869   3.140   3.649   2.962 -0.8484  4.0303 -1.0882
17862THY    CA633870   3.052   3.923   2.853 -0.0792  0.7205 -0.1482
17862THY    HA633871   2.986   3.873   2.783  1.7127 -0.4607 -0.9697
17863THY      O33872   1.370   4.654   3.340 -0.1412 -0.4593  0.6914
17863THY     HO33873   1.457   4.666   3.297 -0.4979 -1.7234 -1.0225
17863THY    CA133874   1.291   4.667   3.230  0.1485  0.4888  0.2960
17863THY    CA233875   1.156   4.644   3.246  0.0150 -0.3840 -0.9910
17863THY    CP133876   1.092   4.605   3.380 -0.2770 -0.4440 -0.0221
17863THY    HP133877   1.162   4.571   3.458  1.7415 -1.6027  1.2716
17863THY    CP233878   0.987   4.486   3.360 -0.3943  0.3047 -0.2566
17863THY    HP233879   0.892   4.527   3.322 -0.9564  0.3665 -1.4568
17863THY    HP333880   0.971   4.430   3.452  2.5666  0.2731 -1.3096
17863THY    HP433881   1.026   4.409   3.293  1.9653  1.4184 -0.1020
17863THY    CP333882   1.026   4.728   3.444  0.3054 -0.3179 -0.0930
17863THY    HP533883   0.967   4.698   3.531  0.3198  0.0429  0.8767
17863THY    HP633884   0.949   4.770   3.377  0.0214  0.9951  1.5985
17863THY    HP733885   1.100   4.803   3.472 -0.0773  0.3741  0.0368
17863THY    CA333886   1.075   4.657   3.134 -0.3310  0.6924  0.0024
17863THY    HA333887   0.969   4.646   3.151  0.1204  3.0280 -1.4666
17863THY    CA433888   1.132   4.681   3.003 -0.5511 -0.3865  0.5558
17863THY    HA433889   1.070   4.702   2.917  0.2930 -1.9921 -2.7870
17863THY    CA533890   1.266   4.705   2.995 -1.0799  0.4632 -0.5587
17863THY    CM133891   1.327   4.752   2.867  0.3286  0.9185  0.7857
17863THY    HM133892   1.420   4.696   2.851 -0.3135 -0.9743  0.1996
17863THY    HM233893   1.362   4.856   2.878  1.9520  2.5565  0.1392
17863THY    HM333894   1.258   4.729   2.785 -0.4152  1.5757  0.6163
17863THY    CA633895   1.348   4.703   3.107  0.5802 -0.3659  0.1297
17863THY    HA633896   1.453   4.727   3.096  1.1662  1.7765 -1.1662
17864THY      O33897   6.172   3.808   4.168  0.3204 -0.0857 -0.4600
17864THY     HO33898   6.165   3.830   4.262 -2.1152 -0.3588  0.2624
17864THY    CA133899   6.071   3.871   4.103  0.1518  0.1873  0.3090
17864THY    CA233900   6.075   3.880   3.964  0.2183 -0.3783  0.6404
17864THY    CP133901   6.181   3.810   3.878 -0.7572  0.1242  0.5033
17864THY    HP133902   6.281   3.814   3.923  0.2603 -1.9872  0.7587
17864THY    CP233903   6.214   3.874   3.736 -0.2452 -0.1993  0.2794
17864THY    HP233904   6.306   3.831   3.696 -0.3973 -0.1706 -0.0787
17864THY    HP333905   6.242   3.980   3.746  1.3469 -0.9146 -0.0534
17864THY    HP433906   6.130   3.868   3.666 -0.8272  0.5884 -1.3042
17864THY    CP333907   6.129   3.666   3.842  0.0834 -0.0425 -0.1432
17864THY    HP533908   6.212   3.602   3.809  0.6063 -2.0465  1.4658
17864THY    HP633909   6.057   3.663   3.759  0.2696 -0.2282  0.4400
17864THY    HP733910   6.073   3.617   3.923 -1.0659  0.6787  2.2129
17864THY    CA333911   5.970   3.942   3.902  1.6957  0.2930  1.0587
17864THY    HA333912   5.963   3.935   3.794 -0.7273  0.4897 -2.0002
17864THY    CA433913   5.863   4.006   3.979  0.3828  0.5761 -0.1054
17864THY    HA433914   5.779   4.056   3.930 -0.1981  1.6494  0.0120
17864THY    CA533915   5.881   4.016   4.116 -0.1769 -0.1196 -0.1411
17864THY    CM133916   5.785   4.088   4.209  1.0466 -0.6190  0.8335
17864THY    HM133917   5.827   4.115   4.306  0.6422 -0.2647  0.2322
17864THY    HM233918   5.694   4.029   4.229  1.2061  2.0902  1.4035
17864THY    HM333919   5.756   4.181   4.159 -0.6968  0.8136  1.1111
17864THY    CA633920   5.975   3.936   4.180 -0.7544 -0.1913  0.4236
17864THY    HA633921   5.971   3.933   4.289 -1.7065 -0.0459  3.5444
17865THY      O33922   4.253   6.355   6.529 -0.6682  0.4071  0.5734
17865THY     HO33923   4.249   6.341   6.433 -1.2871  0.5435 -0.2016
17865THY    CA133924   4.342   6.270   6.580  0.2071  0.4936  0.7555
17865THY    CA233925   4.405   6.290   6.697  0.9919 -0.3370 -0.3988
17865THY    CP133926   4.380   6.424   6.778 -0.0743 -0.3279 -0.0369
17865THY    HP133927   4.303   6.478   6.722 -1.3799 -0.0224 -1.5392
17865THY    CP233928   4.515   6.508   6.781 -0.0578 -0.3819  0.0783
17865THY    HP233929   4.495   6.615   6.794 -2.6399 -2.7075 -0.0139
17865THY    HP333930   4.585   6.483   6.701  1.8412  2.0502 -3.3350
17865THY    HP433931   4.574   6.469   6.865  1.7309 -2.2838 -1.4977
17865THY    CP333932   4.329   6.398   6.919 -0.4492  0.1301 -0.8088
17865THY    HP533933   4.401   6.358   6.990  1.0314 -0.5549  0.5146
17865THY    HP633934   4.252   6.321   6.909  1.1055  0.0444 -2.3860
17865THY    HP733935   4.288   6.491   6.961 -1.7664  0.3548 -1.4717
17865THY    CA333936   4.494   6.195   6.747  0.2923  0.5197 -0.0438
17865THY    HA333937   4.537   6.196   6.847  1.7518 -0.0875  0.9974
17865THY    CA433938   4.529   6.085   6.665  0.3868  0.2527 -0.0632
17865THY    HA433939   4.599   6.008   6.694 -0.0252  0.2447 -0.4427
17865THY    CA533940   4.476   6.075   6.538 -0.4086  0.2394 -0.1314
17865THY    CM133941   4.515   5.961   6.439 -0.0404 -0.2618 -0.1498
17865THY    HM133942   4.455   5.870   6.446  1.6576  0.7226 -1.2365
17865THY    HM233943   4.617   5.924   6.452  0.8720 -1.6203  1.6695
17865THY    HM333944   4.515   5.994   6.334  0.2324 -0.7576 -1.6659
17865THY    CA633945   4.370   6.159   6.491  0.0216 -0.6106 -0.5202
17865THY    HA633946   4.326   6.153   6.392  1.0778 -1.3975  2.8942
17866THY      O33947   6.143   5.454   7.644 -0.0934  0.1115 -0.0627
17866THY     HO33948   6.111   5.530   7.593 -1.1574  1.1634  0.2298
17866THY    CA133949   6.074   5.437   7.755 -0.0601 -0.0210 -0.4476
17866THY    CA233950   6.079   5.314   7.825  1.2058 -0.2093 -0.9263
17866THY    CP133951   6.169   5.201   7.777  0.2962  0.0101  0.6077
17866THY    HP133952   6.253   5.227   7.712  3.2802  1.9082 -3.3754
17866THY    CP233953   6.093   5.078   7.718 -0.1761 -0.8123 -0.6423
17866THY    HP233954   6.154   4.987   7.727 -1.2869 -3.9832 -1.8583
17866THY    HP333955   6.066   5.093   7.613 -2.1953 -0.1668  0.6759
17866THY    HP433956   6.006   5.068   7.784 -0.0813  0.1840  3.3079
17866THY    CP333957   6.260   5.165   7.902  0.4245 -0.0719  0.2174
17866THY    HP533958   6.295   5.066   7.870 -2.0450 -0.4982 -0.5831
17866THY    HP633959   6.202   5.159   7.994 -0.3569 -0.4678  1.4441
17866THY    HP733960   6.339   5.240   7.919  0.4996 -3.4400  1.0666
17866THY    CA333961   5.999   5.298   7.940 -0.5421 -0.1426 -0.1232
17866THY    HA333962   6.000   5.211   8.005 -2.9843  0.5618  0.2726
17866THY    CA433963   5.915   5.404   7.978 -0.2289 -0.2444  0.0256
17866THY    HA433964   5.847   5.397   8.062  2.8333  2.2895 -1.5148
17866THY    CA533965   5.920   5.529   7.913 -0.4580  0.0023  0.5086
17866THY    CM133966   5.822   5.639   7.960  0.2604 -0.2294  0.4294
17866THY    HM133967   5.843   5.736   7.914 -1.4155 -0.8881  0.5255
17866THY    HM233968   5.823   5.645   8.069  0.1460 -0.2499  0.8465
17866THY    HM333969   5.722   5.611   7.923  0.3051  1.5025 -2.3530
17866THY    CA633970   6.006   5.552   7.799  0.1603 -0.4691  0.2777
17866THY    HA633971   6.019   5.652   7.759  0.4201  0.3895  0.5965
17867THY      O33972   3.135   3.948   3.921  0.7019 -0.1710 -0.5784
17867THY     HO33973   3.204   3.965   3.855  2.0393  1.6142  1.3577
17867THY    CA133974   3.017   3.916   3.867  0.8323  0.2583  0.6030
17867THY    CA233975   2.919   3.852   3.941 -0.7149 -0.2586  0.7331
17867THY    CP133976   2.945   3.828   4.085  0.4016  0.2339  0.7209
17867THY    HP133977   3.017   3.904   4.118 -0.0627  1.8044  0.5249
17867THY    CP233978   2.998   3.687   4.099 -0.0038  0.0467 -0.3093
17867THY    HP233979   3.094   3.668   4.051 -0.1908 -0.5831  0.3067
17867THY    HP333980   2.919   3.615   4.076 -2.0886  0.0201  1.8643
17867THY    HP433981   3.029   3.672   4.203 -0.5845  0.2739  0.0300
17867THY    CP333982   2.821   3.837   4.167 -0.4515  0.2552  0.8456
17867THY    HP533983   2.756   3.921   4.140 -2.1257  2.5306  0.3844
17867THY    HP633984   2.847   3.857   4.272 -0.3459  0.0217  1.9986
17867THY    HP733985   2.762   3.746   4.150  0.0169 -1.6794  0.8568
17867THY    CA333986   2.808   3.810   3.871  0.8088  0.0198  0.1699
17867THY    HA333987   2.734   3.748   3.922  0.1335 -0.4182  0.6088
17867THY    CA433988   2.796   3.828   3.735 -0.1297  0.1141 -0.3116
17867THY    HA433989   2.708   3.798   3.678 -0.6322  0.7248 -0.0303
17867THY    CA533990   2.889   3.906   3.663  0.2063 -0.4750  0.0171
17867THY    CM133991   2.870   3.942   3.518 -0.2559  0.6862 -0.0038
17867THY    HM133992   2.906   4.040   3.486  0.0449 -0.0736 -0.3551
17867THY    HM233993   2.765   3.933   3.486  0.3474 -1.8589  1.1047
17867THY    HM333994   2.922   3.867   3.457 -1.8893  0.6953 -1.2066
17867THY    CA633995   3.002   3.945   3.731  0.3511  0.4030  0.2719
17867THY    HA633996   3.071   4.000   3.668 -0.7752 -0.2894  0.9252
17868THY      O33997   8.174   4.446   7.117  0.5972 -0.4132  0.3151
17868THY     HO33998   8.148   4.368   7.169 -1.3397 -1.2476  0.3613
17868THY    CA133999   8.123   4.553   7.189 -0.0394  0.1472 -0.1592
17868THY    CA234000   8.182   4.686   7.190  0.1259 -0.2281 -0.7282
17868THY    CP134001   8.305   4.720   7.108  0.1345 -0.6261  1.1385
17868THY    HP134002   8.369   4.631   7.108 -2.5819  0.2902 -0.9173
17868THY    CP234003   8.395   4.812   7.183 -0.4593 -0.1622  0.0470
17868THY    HP234004   8.492   4.803   7.132  1.1023  2.4706  0.5674
17868THY    HP334005   8.409   4.772   7.284  0.8499 -0.9529 -1.6082
17868THY    HP434006   8.373   4.919   7.188 -3.3467 -1.4855 -0.3964
17868THY    CP334007   8.270   4.781   6.969  0.3595  0.0794  0.6207
17868THY    HP534008   8.231   4.883   6.980 -0.2071 -0.8303  0.5113
17868THY    HP634009   8.208   4.708   6.917  1.0636  0.6899 -0.4309
17868THY    HP734010   8.357   4.779   6.901  0.8289  0.6832  0.2377
17868THY    CA334011   8.113   4.798   7.255 -0.5091 -0.1499  0.6584
17868THY    HA334012   8.155   4.898   7.256  0.3273 -1.5861  0.3475
17868THY    CA434013   8.014   4.762   7.346 -0.0572  0.2662 -0.2739
17868THY    HA434014   7.981   4.832   7.422 -0.3091 -0.2408  0.1626
17868THY    CA534015   7.967   4.635   7.352  0.7249  0.2085  0.0926
17868THY    CM134016   7.855   4.602   7.456  0.1949 -0.3594 -0.3776
17868THY    HM134017   7.775   4.677   7.461 -0.3402  2.9331 -0.9872
17868THY    HM234018   7.895   4.602   7.558  0.3780 -0.4303  0.1360
17868THY    HM334019   7.795   4.512   7.436 -0.0596 -2.4923  0.2119
17868THY    CA634020   8.010   4.532   7.269 -0.2567  0.6165 -0.5242
17868THY    HA634021   7.954   4.439   7.264  1.3443 -1.0730 -1.4691
17869THY      O34022   8.984   3.559   5.924  0.1328  0.5146  0.5716
17869THY     HO34023   9.066   3.531   5.969 -0.4246  2.3810  1.8091
17869THY    CA134024   9.004   3.662   5.834 -0.1758  0.5681 -0.1935
17869THY    CA234025   8.895   3.716   5.765 -0.6242  0.4383 -0.2097
17869THY    CP134026   8.757   3.654   5.773  0.0763  0.2269  0.1094
17869THY    HP134027   8.739   3.579   5.851 -1.3226 -2.0953 -2.1129
17869THY    CP234028   8.731   3.579   5.635  0.2513 -0.4222 -0.1328
17869THY    HP234029   8.631   3.535   5.633 -0.0577  0.8654  0.4404
17869THY    HP334030   8.797   3.492   5.629 -1.6020  1.3400 -1.7666
17869THY    HP434031   8.747   3.659   5.561  1.0413  0.8987  0.9749
17869THY    CP334032   8.654   3.759   5.796  0.6943 -0.1114  0.2028
17869THY    HP534033   8.554   3.714   5.796  1.0042 -0.8437 -0.5082
17869THY    HP634034   8.648   3.844   5.727 -1.7398  0.5086  0.6290
17869THY    HP734035   8.682   3.811   5.888  0.2623 -0.0052  0.2561
17869THY    CA334036   8.922   3.829   5.683 -0.8585  0.5310 -0.1008
17869THY    HA334037   8.839   3.874   5.630 -1.4120  1.0103 -0.5525
17869THY    CA434038   9.053   3.893   5.682 -0.0864 -0.2049  0.1402
17869THY    HA434039   9.080   3.976   5.617 -0.2987 -0.5730 -0.0728
17869THY    CA534040   9.151   3.839   5.764  0.4348  0.7647 -0.3331
17869THY    CM134041   9.287   3.912   5.766  0.7653 -0.8127  0.1748
17869THY    HM134042   9.338   3.895   5.862 -0.6756 -0.3466 -1.8144
17869THY    HM234043   9.267   4.019   5.753  0.9934 -0.0364  0.3191
17869THY    HM334044   9.353   3.892   5.681  1.4173 -0.2400 -0.1477
17869THY    CA634045   9.131   3.717   5.832  0.5214  0.5656 -0.3062
17869THY    HA634046   9.204   3.685   5.906 -1.1882  1.2479 -2.9775
17870THY      O34047   4.051   4.504   3.750  0.2488  0.0034 -0.0341
17870THY     HO34048   4.097   4.589   3.745  0.5433  3.8132  0.2002
17870THY    CA134049   4.019   4.456   3.622 -1.0078  0.6246 -0.1792
17870THY    CA234050   3.939   4.347   3.596 -0.0415 -0.2297 -0.1201
17870THY    CP134051   3.892   4.251   3.702 -0.2768  0.2527 -0.2165
17870THY    HP134052   3.916   4.287   3.803 -0.4884 -0.4327  2.0022
17870THY    CP234053   3.946   4.103   3.675 -0.1514 -0.0845 -0.7635
17870THY    HP234054   3.871   4.057   3.610 -0.5178 -2.0258  2.2743
17870THY    HP334055   3.963   4.044   3.766 -1.1795 -1.5309 -3.4202
17870THY    HP434056   4.038   4.104   3.615  0.6031  1.0236  0.5584
17870THY    CP334057   3.741   4.253   3.710 -0.0054 -0.7120  0.1257
17870THY    HP534058   3.708   4.357   3.714 -0.0674 -0.1383  0.0897
17870THY    HP634059   3.699   4.194   3.792  1.7044 -0.1532 -0.3588
17870THY    HP734060   3.689   4.210   3.624  0.3591 -0.6137 -0.5154
17870THY    CA334061   3.911   4.317   3.464 -0.5476  0.6656  0.0169
17870THY    HA334062   3.865   4.223   3.437  1.2990  0.6074 -0.9050
17870THY    CA434063   3.973   4.389   3.358 -0.0719 -0.3842  0.7869
17870THY    HA434064   3.965   4.353   3.256 -1.2149  0.1845 -0.6718
17870THY    CA534065   4.043   4.508   3.385  0.0291  0.3207  0.2502
17870THY    CM134066   4.095   4.596   3.277  0.2689 -0.5845  0.5818
17870THY    HM134067   4.014   4.604   3.203  1.0362 -1.4319  0.7150
17870THY    HM234068   4.186   4.551   3.236  0.0158  0.6937 -1.1769
17870THY    HM334069   4.105   4.699   3.313  0.7862  1.8460 -0.2584
17870THY    CA634070   4.067   4.535   3.518 -0.3089  0.1862 -0.3042
17870THY    HA634071   4.130   4.622   3.537  0.2498  0.5739 -0.7809
17871THY      O34072   3.921   7.356   6.381 -0.0153  0.0345  0.0409
17871THY     HO34073   3.958   7.434   6.337 -0.1304 -0.9022 -0.4245
17871THY    CA134074   3.806   7.313   6.324  0.7384  0.0161 -0.6634
17871THY    CA234075   3.730   7.206   6.386 -0.3592  0.1694 -1.0254
17871THY    CP134076   3.785   7.136   6.510 -0.6330  0.2653  0.9273
17871THY    HP134077   3.821   7.214   6.579  1.2597  0.1796  0.1765
17871THY    CP234078   3.893   7.035   6.467  0.2244  0.0346  0.0051
17871THY    HP234079   3.976   7.087   6.417 -0.3757 -0.2204  0.7427
17871THY    HP334080   3.851   6.969   6.391 -2.0041 -0.4266  1.8270
17871THY    HP434081   3.926   6.962   6.542 -0.3427  0.8102  0.5233
17871THY    CP334082   3.678   7.055   6.577 -0.0533 -0.4395  0.0826
17871THY    HP534083   3.604   7.125   6.616  0.9378 -1.2795  1.6556
17871THY    HP634084   3.719   7.000   6.663 -0.5928 -0.9000 -1.0803
17871THY    HP734085   3.622   6.982   6.516 -1.2136  0.5725  0.0985
17871THY    CA334086   3.599   7.196   6.332 -0.0257  0.5400 -0.2825
17871THY    HA334087   3.530   7.124   6.375 -2.0928  0.8464  1.7540
17871THY    CA434088   3.554   7.285   6.228 -0.0096 -0.9604  0.0984
17871THY    HA434089   3.449   7.277   6.202 -0.8321  2.0581 -0.1946
17871THY    CA534090   3.645   7.369   6.161 -0.1918 -0.3263 -0.2219
17871THY    CM134091   3.612   7.450   6.037  0.4651 -0.1686  0.4718
17871THY    HM134092   3.626   7.557   6.056 -1.3100  0.0092  0.6963
17871THY    HM234093   3.513   7.421   6.001  0.9221 -1.9160  0.9344
17871THY    HM334094   3.683   7.424   5.957  1.2325  0.4429  0.6578
17871THY    CA634095   3.772   7.376   6.211  0.4222  0.3308 -0.3054
17871THY    HA634096   3.835   7.444   6.155 -0.9922 -2.7453 -1.3051
17872THY      O34097   1.809   7.908   4.897  0.1425 -0.7730 -0.1603
17872THY     HO34098   1.770   7.978   4.841 -0.8096 -0.3387 -0.3255
17872THY    CA134099   1.870   7.985   4.999  0.5895 -0.3360 -0.1142
17872THY    CA234100   1.975   7.925   5.080 -0.4365 -0.4092  0.3219
17872THY    CP134101   1.999   7.775   5.091 -0.3524 -0.4192  0.8201
17872THY    HP134102   1.938   7.723   5.016 -0.7877  0.9908 -0.8059
17872THY    CP234103   1.942   7.726   5.224  0.7493 -0.3568  0.7577
17872THY    HP234104   1.992   7.751   5.318 -3.0573  2.9720 -2.6556
17872THY    HP334105   1.931   7.618   5.210 -1.9054  0.7416  0.8178
17872THY    HP434106   1.836   7.753   5.218  0.0067 -1.3426 -2.0235
17872THY    CP334107   2.143   7.731   5.081  0.5017  0.1017  0.3819
17872THY    HP534108   2.143   7.623   5.102  3.0053 -0.1925  0.2626
17872THY    HP634109   2.204   7.784   5.156 -0.8428  0.5533  1.3273
17872THY    HP734110   2.186   7.740   4.981  1.8857  0.6582  0.2279
17872THY    CA334111   2.051   8.015   5.160  0.1558  0.1913 -0.2913
17872THY    HA334112   2.124   7.979   5.232  0.6082  0.4740  1.0972
17872THY    CA434113   2.024   8.152   5.144  0.5888 -0.3070  0.5595
17872THY    HA434114   2.084   8.221   5.202  0.5698 -0.8544  1.0393
17872THY    CA534115   1.925   8.204   5.057 -0.2291 -0.9564 -0.2943
17872THY    CM134116   1.919   8.351   5.042 -0.0365 -0.3133 -0.8045
17872THY    HM134117   1.856   8.401   5.116 -0.0176 -0.2118 -0.9290
17872THY    HM234118   1.870   8.382   4.949  2.3773 -1.3618  0.1170
17872THY    HM334119   2.012   8.408   5.053 -0.8991 -0.9920  0.7944
17872THY    CA634120   1.834   8.123   4.990  0.6341  0.1981 -0.2293
17872THY    HA634121   1.762   8.167   4.921  0.1312  0.8347 -0.0289
17873THY      O34122   7.951   6.036   7.488  0.7512  0.5006 -0.7225
17873THY     HO34123   8.007   6.096   7.539 -3.5394  0.6754  3.8472
17873THY    CA134124   7.829   6.033   7.555 -0.3555 -0.1600 -0.0899
17873THY    CA234125   7.714   5.972   7.505 -0.4088 -0.1393  0.2043
17873THY    CP134126   7.721   5.900   7.376 -0.4404 -0.0616  0.0738
17873THY    HP134127   7.824   5.868   7.360  0.0835  1.6548  0.7754
17873THY    CP234128   7.693   5.992   7.257  0.3395 -0.0842  0.5435
17873THY    HP234129   7.584   5.996   7.242  0.4231 -0.6096  0.8566
17873THY    HP334130   7.744   5.944   7.172  1.0311  0.4203  0.3675
17873THY    HP434131   7.739   6.091   7.255  0.8238 -0.9944  0.3157
17873THY    CP334132   7.631   5.777   7.359 -0.2785  0.3699 -0.3471
17873THY    HP534133   7.645   5.731   7.261 -0.4972  0.2237 -0.1006
17873THY    HP634134   7.527   5.809   7.371 -0.0188  1.7671  0.0540
17873THY    HP734135   7.651   5.703   7.438  1.2895  1.4740  1.1807
17873THY    CA334136   7.603   5.970   7.583  0.3527 -0.3993  0.0147
17873THY    HA334137   7.509   5.923   7.556  0.1752 -0.3125  0.3126
17873THY    CA434138   7.604   6.036   7.710  0.3970 -1.0930 -0.7864
17873THY    HA434139   7.514   6.043   7.769  0.8255 -0.6429  3.0821
17873THY    CA534140   7.716   6.096   7.756  0.1257 -0.5599 -0.8191
17873THY    CM134141   7.716   6.167   7.886  0.0415 -0.2118 -0.5420
17873THY    HM134142   7.619   6.175   7.936  0.5240  0.7238 -0.3863
17873THY    HM234143   7.753   6.270   7.887 -0.3241 -0.3988 -0.4102
17873THY    HM334144   7.781   6.114   7.957 -0.0340  1.4796  1.4816
17873THY    CA634145   7.829   6.094   7.675 -0.5280 -0.7914  0.0472
17873THY    HA634146   7.915   6.152   7.708  0.7752 -0.5381 -1.9284
17874THY      O34147   7.368   3.859   4.486 -0.6824 -0.4378 -0.6437
17874THY     HO34148   7.396   3.800   4.414  1.5717  0.7215 -1.0812
17874THY    CA134149   7.457   3.840   4.592  0.4612  0.1295 -0.6159
17874THY    CA234150   7.425   3.877   4.727 -0.4878  0.1545  0.2804
17874THY    CP134151   7.298   3.958   4.759  0.1969 -0.6013 -0.6495
17874THY    HP134152   7.246   3.976   4.665 -2.0688  0.0252 -3.2153
17874THY    CP234153   7.328   4.097   4.825  0.4791  0.1683 -1.0415
17874THY    HP234154   7.420   4.135   4.780 -0.2648  0.7318  1.6262
17874THY    HP334155   7.331   4.105   4.934 -2.9297  0.4150 -1.4398
17874THY    HP434156   7.254   4.170   4.790 -0.6817  0.5951 -1.9876
17874THY    CP334157   7.205   3.885   4.849 -0.0274 -0.1477 -0.2895
17874THY    HP534158   7.249   3.851   4.943 -1.1410  0.3775 -0.3176
17874THY    HP634159   7.166   3.791   4.806 -0.8971  0.6344 -0.2965
17874THY    HP734160   7.128   3.956   4.879  0.9989  1.3693  0.2088
17874THY    CA334161   7.529   3.848   4.822 -0.2523 -0.3404 -0.4735
17874THY    HA334162   7.522   3.883   4.924  1.4072 -0.6634  0.9657
17874THY    CA434163   7.643   3.775   4.783 -0.4601 -0.4628 -0.0649
17874THY    HA434164   7.723   3.757   4.854  2.0858 -3.4564 -1.8659
17874THY    CA534165   7.660   3.736   4.654 -0.1996  0.0506 -0.0245
17874THY    CM134166   7.778   3.659   4.604 -0.1476 -0.7273 -0.6013
17874THY    HM134167   7.755   3.552   4.600  0.4272 -1.3255 -0.7083
17874THY    HM234168   7.855   3.659   4.682 -1.6979  0.8803  0.4753
17874THY    HM334169   7.813   3.695   4.507 -1.1290 -0.9435 -0.1751
17874THY    CA634170   7.571   3.776   4.551 -0.2182 -1.2145 -0.3038
17874THY    HA634171   7.590   3.756   4.446 -2.0504 -1.3750 -1.5031
17875THY      O34172   8.541   2.060   4.582  0.0345 -0.1357  0.6683
17875THY     HO34173   8.625   2.107   4.567  0.3244  1.1414  0.5895
17875THY    CA134174   8.445   2.155   4.588  0.1472  0.4020  0.3684
17875THY    CA234175   8.324   2.128   4.653 -0.1308 -0.2714 -0.5717
17875THY    CP134176   8.316   1.998   4.737  0.1803  0.6369 -0.2084
17875THY    HP134177   8.410   1.943   4.723  1.2954  1.1065  1.4992
17875THY    CP234178   8.210   1.903   4.681  0.7663  0.1374  0.4881
17875THY    HP234179   8.119   1.959   4.658  1.1311 -2.0468  0.2869
17875THY    HP334180   8.188   1.816   4.743  1.1930 -0.5481 -0.1179
17875THY    HP434181   8.246   1.857   4.588 -0.7219 -0.5580  0.6802
17875THY    CP334182   8.293   2.033   4.890 -0.2247 -0.8990  0.2812
17875THY    HP534183   8.263   1.943   4.944 -0.4817 -1.2332  0.1651
17875THY    HP634184   8.209   2.099   4.915  0.5844  1.4018  0.5403
17875THY    HP734185   8.388   2.071   4.930 -1.0789  0.4373  1.1301
17875THY    CA334186   8.220   2.230   4.653  0.4610 -0.4180 -0.6680
17875THY    HA334187   8.124   2.214   4.701 -0.5061 -1.4359  1.5989
17875THY    CA434188   8.241   2.341   4.573  0.6684  0.2213 -0.3022
17875THY    HA434189   8.162   2.415   4.565  0.8722  2.4431  0.2415
17875THY    CA534190   8.361   2.369   4.507 -0.6502  0.1283 -0.6184
17875THY    CM134191   8.384   2.502   4.432  0.4135 -0.0146  0.8449
17875THY    HM134192   8.491   2.526   4.421  1.1246  2.1701 -0.9494
17875THY    HM234193   8.341   2.588   4.485 -0.9327  2.1495 -1.0375
17875THY    HM334194   8.335   2.492   4.334  2.2881 -0.8060 -1.5511
17875THY    CA634195   8.461   2.274   4.514  0.2192 -0.2883 -0.0426
17875THY    HA634196   8.550   2.288   4.453  1.5250  1.4224 -0.4990
17876THY      O34197   4.204   3.583   3.451 -0.1983 -0.9608 -0.4869
17876THY     HO34198   4.231   3.677   3.445 -0.1096 -1.5252 -0.5422
17876THY    CA134199   4.250   3.529   3.338  0.1828 -0.1641 -0.2755
17876THY    CA234200   4.237   3.388   3.312  0.9322  0.7673 -0.1607
17876THY    CP134201   4.161   3.300   3.413  0.3914  0.2320 -0.0133
17876THY    HP134202   4.080   3.365   3.449 -0.5635 -1.3406 -0.2851
17876THY    CP234203   4.260   3.256   3.522 -0.0496 -0.6044  0.5113
17876THY    HP234204   4.323   3.341   3.550  0.1633  0.2661  0.0792
17876THY    HP334205   4.335   3.185   3.486  0.5368  0.6221  0.4822
17876THY    HP434206   4.207   3.233   3.615 -1.3956 -1.2047  1.1299
17876THY    CP334207   4.097   3.174   3.348  0.0826  0.1265 -0.8385
17876THY    HP534208   4.039   3.201   3.259 -2.2017  1.6092 -0.6873
17876THY    HP634209   4.022   3.128   3.412 -0.4774 -0.4686 -0.7746
17876THY    HP734210   4.173   3.099   3.321  0.3003 -0.3206 -0.4664
17876THY    CA334211   4.276   3.339   3.182 -0.2070 -0.0654  0.2198
17876THY    HA334212   4.276   3.231   3.172  1.2321 -2.0087  0.3594
17876THY    CA434213   4.332   3.431   3.092 -0.2874 -0.3217 -0.0567
17876THY    HA434214   4.365   3.398   2.994 -0.3277 -0.6751  0.9147
17876THY    CA534215   4.343   3.566   3.119  0.4222  0.2146 -0.8932
17876THY    CM134216   4.411   3.658   3.024  0.0527 -0.3974 -0.1328
17876THY    HM134217   4.405   3.761   3.060 -4.1864  1.2800 -0.7552
17876THY    HM234218   4.367   3.663   2.924 -0.3374 -0.3024 -1.3380
17876THY    HM334219   4.516   3.629   3.015  0.3467 -0.5323  0.9400
17876THY    CA634220   4.306   3.616   3.247 -0.7989 -0.3698 -0.5432
17876THY    HA634221   4.323   3.721   3.266 -2.0097 -1.2676 -0.1621
17877THY      O34222   8.270   6.583   7.503 -0.1495 -0.2371 -0.4806
17877THY     HO34223   8.305   6.570   7.413  3.6929  0.7047  1.6867
17877THY    CA134224   8.383   6.553   7.575  0.0227  0.4821 -0.3991
17877THY    CA234225   8.406   6.598   7.707  0.0544 -0.0107  0.1816
17877THY    CP134226   8.294   6.687   7.770 -0.8849  0.3249  0.2182
17877THY    HP134227   8.195   6.646   7.749  0.3065  2.2127 -4.2858
17877THY    CP234228   8.299   6.826   7.706  0.5820 -0.7061  0.4199
17877THY    HP234229   8.226   6.891   7.755  0.6484 -0.5976  0.4133
17877THY    HP334230   8.271   6.823   7.600 -2.5996 -0.0404  2.1763
17877THY    HP434231   8.403   6.861   7.702  1.3390 -1.7278 -1.7822
17877THY    CP334232   8.307   6.704   7.916 -0.2848 -0.1260 -0.2270
17877THY    HP534233   8.219   6.739   7.971  0.0224  0.6173 -0.5944
17877THY    HP634234   8.391   6.771   7.936 -0.1747 -0.5959 -0.2212
17877THY    HP734235   8.322   6.604   7.960  0.5248 -0.0572 -0.0770
17877THY    CA334236   8.530   6.584   7.771 -0.8594 -0.2307 -0.3427
17877THY    HA334237   8.556   6.619   7.870  1.3170 -0.7346 -0.3615
17877THY    CA434238   8.635   6.529   7.699 -0.8526 -0.6980 -0.2291
17877THY    HA434239   8.730   6.510   7.747 -0.9828 -0.1967  0.3697
17877THY    CA534240   8.615   6.471   7.571  0.8471  0.0738 -0.6378
17877THY    CM134241   8.728   6.417   7.483 -0.5694  0.0260  0.3123
17877THY    HM134242   8.687   6.357   7.401  1.9396  0.7900 -2.6973
17877THY    HM234243   8.780   6.346   7.548 -1.3143 -0.8613 -1.0896
17877THY    HM334244   8.798   6.490   7.441 -1.3464 -1.1489  0.4268
17877THY    CA634245   8.486   6.486   7.509  0.1445 -0.0198 -0.2688
17877THY    HA634246   8.476   6.459   7.405 -2.3382  0.3462 -1.0121
17878THY      O34247   5.944   3.093   8.116  0.0991 -0.0271  0.7674
17878THY     HO34248   5.910   3.010   8.153  0.8400 -0.0246  0.4529
17878THY    CA134249   5.993   3.052   7.999  0.3977 -0.0422 -0.2442
17878THY    CA234250   6.024   3.150   7.896  0.1136 -0.5437  0.6652
17878THY    CP134251   5.994   3.299   7.925  0.0124 -0.2816 -0.0341
17878THY    HP134252   5.907   3.320   7.988  0.3008  0.2216 -0.3325
17878THY    CP234253   5.976   3.388   7.814  0.1270  0.9257  0.4884
17878THY    HP234254   6.063   3.384   7.749  0.1902  1.0681 -0.5158
17878THY    HP334255   5.968   3.494   7.844 -0.7639  0.6185  0.5203
17878THY    HP434256   5.892   3.355   7.752  1.1622 -0.4450  0.3708
17878THY    CP334257   6.105   3.364   8.012 -0.3447  0.2205  1.0126
17878THY    HP534258   6.203   3.366   7.963 -0.7748 -0.7494 -0.0080
17878THY    HP634259   6.117   3.304   8.103 -1.3757 -1.0853 -1.3579
17878THY    HP734260   6.087   3.470   8.032 -0.8958  1.6224  0.6799
17878THY    CA334261   6.094   3.098   7.786 -0.3904 -0.0549 -0.4452
17878THY    HA334262   6.136   3.154   7.703  2.2346  1.8110  0.5673
17878THY    CA434263   6.095   2.960   7.759 -0.6838 -0.2494 -0.0374
17878THY    HA434264   6.127   2.921   7.663  1.1923  0.2852  0.0835
17878THY    CA534265   6.059   2.869   7.858  1.4509  0.3118  0.2464
17878THY    CM134266   6.058   2.723   7.828 -0.1873 -0.4689  0.0186
17878THY    HM134267   6.145   2.686   7.772  1.0923  2.0546 -1.0141
17878THY    HM234268   5.968   2.700   7.769 -0.2055 -0.9456  1.2206
17878THY    HM334269   6.055   2.659   7.916  0.8484 -1.0189 -0.8042
17878THY    CA634270   6.017   2.918   7.979  0.7829  0.3342  0.3030
17878THY    HA634271   5.997   2.845   8.057  1.1208  0.8041  0.7050
17879THY      O34272   7.299   1.498   2.366 -0.3851 -0.3414 -0.0314
17879THY     HO34273   7.239   1.445   2.421  1.2194 -0.0926 -1.7325
17879THY    CA134274   7.389   1.550   2.447  1.0458  0.0190 -0.0254
17879THY    CA234275   7.475   1.654   2.401  0.4168  0.1774  0.1573
17879THY    CP134276   7.454   1.717   2.264  0.8203 -0.4435 -0.6302
17879THY    HP134277   7.381   1.667   2.199  0.3617 -0.4385  0.0237
17879THY    CP234278   7.582   1.702   2.191 -0.2091  0.4996  0.1646
17879THY    HP234279   7.637   1.607   2.197  2.5811 -2.1407  1.4759
17879THY    HP334280   7.664   1.773   2.208 -0.7925  0.2389  0.9153
17879THY    HP434281   7.587   1.717   2.083  0.8298  0.4907 -0.1740
17879THY    CP334282   7.417   1.868   2.271 -0.2377 -0.3006  0.0102
17879THY    HP534283   7.418   1.904   2.167 -0.0879 -1.7833 -3.8264
17879THY    HP634284   7.485   1.937   2.323 -1.8989 -0.3113  1.7320
17879THY    HP734285   7.318   1.878   2.317 -0.4010 -0.2237 -1.6159
17879THY    CA334286   7.558   1.712   2.498 -0.2455  0.1908  0.2334
17879THY    HA334287   7.612   1.801   2.466  0.6918 -1.1019 -0.7704
17879THY    CA434288   7.561   1.653   2.624  0.1452 -0.1840 -0.7833
17879THY    HA434289   7.631   1.701   2.691 -0.2125  0.5460 -1.2616
17879THY    CA534290   7.487   1.538   2.662  0.4097 -0.2839 -0.4035
17879THY    CM134291   7.494   1.490   2.803 -0.5822  0.1853  0.3937
17879THY    HM134292   7.523   1.385   2.806 -0.9453  0.3134  0.2943
17879THY    HM234293   7.401   1.508   2.859 -0.0912  0.7296  1.3582
17879THY    HM334294   7.562   1.542   2.872 -0.3124 -0.6732  1.2218
17879THY    CA634295   7.388   1.497   2.573  0.0210 -0.9873  0.6584
17879THY    HA634296   7.317   1.423   2.609 -0.4417 -0.1188  1.4944
17880THY      O34297   9.147   5.660   7.694 -0.0355  0.0863 -0.0908
17880THY     HO34298   9.097   5.661   7.778 -0.6811 -0.2740 -0.7556
17880THY    CA134299   9.059   5.675   7.587  0.1073  0.2280  0.4853
17880THY    CA234300   9.094   5.681   7.453 -0.8765 -0.2034  0.2349
17880THY    CP134301   9.240   5.688   7.411 -0.1864  0.4322  0.2280
17880THY    HP134302   9.308   5.659   7.493  0.6040 -0.3200 -0.1015
17880THY    CP234303   9.280   5.836   7.409  0.1588  0.2573 -0.8680
17880THY    HP234304   9.389   5.847   7.402  0.1224  1.1674  0.3096
17880THY    HP334305   9.249   5.887   7.501  0.1461  0.0047 -0.4131
17880THY    HP434306   9.239   5.892   7.323  1.0156  0.2402 -0.2373
17880THY    CP334307   9.285   5.625   7.277 -0.4247 -0.1974 -0.3958
17880THY    HP534308   9.276   5.515   7.275 -0.7498  0.3856 -0.3861
17880THY    HP634309   9.385   5.659   7.247 -0.3381  1.3314  0.7982
17880THY    HP734310   9.219   5.652   7.194  0.6430 -0.7263  0.6599
17880THY    CA334311   8.992   5.690   7.358  0.2212  0.7310  0.3984
17880THY    HA334312   9.021   5.701   7.254 -3.5147 -0.4240  0.5244
17880THY    CA434313   8.864   5.703   7.396 -0.4870  0.8184 -0.4616
17880THY    HA434314   8.792   5.723   7.317 -1.7306  2.1299  0.4163
17880THY    CA534315   8.821   5.689   7.530  0.2477  0.2063 -0.1527
17880THY    CM134316   8.674   5.688   7.553  0.2957  0.0528 -0.4323
17880THY    HM134317   8.644   5.601   7.613 -1.9423  1.1164  0.9850
17880THY    HM234318   8.620   5.694   7.458 -0.5534  0.3139 -2.8955
17880THY    HM334319   8.647   5.772   7.618 -0.4925  0.0734 -0.6874
17880THY    CA634320   8.921   5.678   7.623  0.2982 -0.0223  0.3136
17880THY    HA634321   8.892   5.663   7.726  1.5858  0.2065 -0.7911
17881THY      O34322   9.208   6.606   6.047  0.3219  0.4990  0.4437
17881THY     HO34323   9.304   6.606   6.031  0.6043  1.9786 -1.5677
17881THY    CA134324   9.180   6.740   6.052  0.2043  0.1254  0.3049
17881THY    CA234325   9.043   6.779   6.047 -0.9708 -0.3037  0.6921
17881THY    CP134326   8.926   6.674   6.062 -0.2523  0.4789 -0.4947
17881THY    HP134327   8.957   6.581   6.112 -3.7818  1.3412 -1.3335
17881THY    CP234328   8.851   6.647   5.928  0.6358 -0.3026  0.2888
17881THY    HP234329   8.757   6.590   5.932  0.8003 -0.9981 -0.0319
17881THY    HP334330   8.917   6.605   5.851 -0.0226 -0.3705 -0.6422
17881THY    HP434331   8.817   6.746   5.896 -1.1676  1.2632  0.2428
17881THY    CP334332   8.821   6.723   6.155  1.0628 -0.2274  0.2047
17881THY    HP534333   8.765   6.803   6.104  2.3557 -0.7950  0.7694
17881THY    HP634334   8.859   6.760   6.250 -1.4700  0.4966  1.1515
17881THY    HP734335   8.757   6.636   6.174  1.4360 -1.2361 -0.3129
17881THY    CA334336   9.010   6.907   6.036 -0.7007  0.8792 -0.1943
17881THY    HA334337   8.909   6.948   6.031 -0.8692  0.0753 -0.6871
17881THY    CA434338   9.115   6.996   6.049 -0.5340  0.1004 -0.2381
17881THY    HA434339   9.091   7.101   6.033  1.2498  1.8872  0.5023
17881THY    CA534340   9.251   6.966   6.053 -0.0840  0.1491  0.0817
17881THY    CM134341   9.354   7.074   6.047  0.8085 -0.3530 -0.0444
17881THY    HM134342   9.335   7.150   6.124 -1.4711  0.3626 -1.2193
17881THY    HM234343   9.373   7.100   5.943  1.1219 -0.4471 -0.6365
17881THY    HM334344   9.455   7.035   6.063  0.5940 -0.8198 -0.8075
17881THY    CA634345   9.283   6.832   6.065  0.5697  0.0222 -0.1003
17881THY    HA634346   9.388   6.808   6.078  1.1181 -1.1592  1.4388
17882THY      O34347   1.226   3.272   1.818  0.1512 -0.1050 -0.6066
17882THY     HO34348   1.210   3.176   1.817 -1.7197  0.4431 -0.3237
17882THY    CA134349   1.323   3.304   1.902 -0.3798 -0.3682 -0.3696
17882THY    CA234350   1.352   3.440   1.926  0.4609 -0.3052  0.4560
17882THY    CP134351   1.263   3.542   1.855 -0.0121 -0.3339 -0.3022
17882THY    HP134352   1.180   3.488   1.809  0.9525 -2.4935 -0.0414
17882THY    CP234353   1.334   3.629   1.744 -0.9932  0.0068  0.6959
17882THY    HP234354   1.381   3.561   1.672  0.2316  2.1593 -0.8754
17882THY    HP334355   1.399   3.708   1.784 -0.7773  0.8037  0.1282
17882THY    HP434356   1.256   3.685   1.691 -1.0451  0.7071  1.3032
17882THY    CP334357   1.205   3.649   1.944 -0.7622  0.1822  0.2437
17882THY    HP534358   1.296   3.693   1.987  0.0092  0.7985 -1.8427
17882THY    HP634359   1.147   3.596   2.020 -2.8210 -0.6313  1.2003
17882THY    HP734360   1.155   3.723   1.880  0.5454  0.1797  1.1668
17882THY    CA334361   1.470   3.472   1.996  0.0577 -0.3753 -0.7222
17882THY    HA334362   1.499   3.577   1.999 -0.3952 -2.6582 -0.4823
17882THY    CA434363   1.535   3.371   2.066 -0.0016  0.3962  0.3917
17882THY    HA434364   1.609   3.404   2.139  0.6635 -0.4150  0.7190
17882THY    CA534365   1.498   3.237   2.053  0.5267 -0.5522  0.2889
17882THY    CM134366   1.557   3.128   2.141  0.8355  0.1132 -0.0443
17882THY    HM134367   1.493   3.046   2.175  2.2058 -2.1244 -2.1506
17882THY    HM234368   1.613   3.169   2.225  1.3948  1.0651 -2.5724
17882THY    HM334369   1.637   3.081   2.084 -0.2474 -0.7582 -0.8795
17882THY    CA634370   1.396   3.200   1.964 -0.6112  0.1155  0.5447
17882THY    HA634371   1.373   3.096   1.943  3.1578  0.3932 -0.4966
17883THY      O34372   5.134   3.999   4.273  0.3206 -0.2308 -0.3853
17883THY     HO34373   5.093   4.066   4.216  2.5209 -0.9191  0.4539
17883THY    CA134374   5.144   4.043   4.398  0.5361 -0.4055  0.3921
17883THY    CA234375   5.169   3.959   4.512  0.2358  0.7247  0.5322
17883THY    CP134376   5.173   3.805   4.499  0.3723 -0.1297 -0.2301
17883THY    HP134377   5.153   3.786   4.393 -1.6464  0.1714 -0.0315
17883THY    CP234378   5.068   3.733   4.571  0.2814 -0.2904  0.2241
17883THY    HP234379   4.971   3.760   4.528  0.3707 -1.1256 -0.7248
17883THY    HP334380   5.062   3.756   4.678  1.1717  0.1759 -1.4948
17883THY    HP434381   5.069   3.624   4.559 -0.8213  0.5632  0.0995
17883THY    CP334382   5.320   3.763   4.533  0.0653  0.3774  0.1948
17883THY    HP534383   5.337   3.771   4.641 -0.1975  0.5269 -1.0672
17883THY    HP634384   5.392   3.825   4.478  1.2783  1.0042 -0.6140
17883THY    HP734385   5.339   3.658   4.507  0.1051 -2.3530  0.7846
17883THY    CA334386   5.198   4.020   4.639  0.3785  1.2796 -0.0620
17883THY    HA334387   5.234   3.955   4.718 -2.8950  3.2277  0.2935
17883THY    CA434388   5.180   4.160   4.653  0.7754  0.0157  0.2689
17883THY    HA434389   5.196   4.198   4.754  1.1215  0.7215 -1.5979
17883THY    CA534390   5.152   4.235   4.540 -0.2120 -0.2452 -0.1213
17883THY    CM134391   5.131   4.381   4.566 -0.0482 -0.0034  0.5927
17883THY    HM134392   5.205   4.420   4.635  0.2815  1.0430 -1.7216
17883THY    HM234393   5.029   4.398   4.604 -0.5441 -0.4039 -1.2824
17883THY    HM334394   5.152   4.448   4.482  1.7772  0.2057  0.3134
17883THY    CA634395   5.133   4.182   4.412 -0.4150  0.2015  0.5419
17883THY    HA634396   5.104   4.246   4.330 -0.3095 -0.5207 -0.3067
17884THY      O34397   1.119   7.122   1.908  1.0091 -0.2402 -0.0048
17884THY     HO34398   1.119   7.172   1.825 -0.7922 -0.5316 -0.4122
17884THY    CA134399   1.158   7.006   1.862 -0.0459  0.1781  0.1811
17884THY    CA234400   1.211   6.912   1.954  0.8027  0.2760 -0.0903
17884THY    CP134401   1.181   6.925   2.107 -0.0690 -0.2633  0.3742
17884THY    HP134402   1.112   7.006   2.132 -0.1734  1.7574 -0.2818
17884THY    CP234403   1.305   6.927   2.190 -0.2031 -0.4104  0.4292
17884THY    HP234404   1.293   6.974   2.288  0.5167 -0.6774  1.2028
17884THY    HP334405   1.374   6.988   2.129  0.1990 -0.0068  0.3860
17884THY    HP434406   1.358   6.831   2.196  1.3964  2.4221  1.3663
17884THY    CP334407   1.108   6.799   2.147 -0.1839 -0.5773 -0.7008
17884THY    HP534408   1.178   6.723   2.183  2.0229  1.2599  1.9893
17884THY    HP634409   1.035   6.753   2.079  0.2094 -1.2433 -0.3563
17884THY    HP734410   1.061   6.827   2.242 -2.0228 -0.4626 -3.6460
17884THY    CA334411   1.248   6.786   1.898 -0.4351 -0.5569  0.2637
17884THY    HA334412   1.280   6.702   1.959 -1.5646  0.7270  0.7160
17884THY    CA434413   1.248   6.766   1.762 -0.3688  0.7174  0.2386
17884THY    HA434414   1.273   6.668   1.720 -2.3550 -0.9883  0.3664
17884THY    CA534415   1.208   6.869   1.674  0.9429 -1.4512  0.1426
17884THY    CM134416   1.191   6.844   1.524  0.6098  0.3643 -0.1921
17884THY    HM134417   1.270   6.899   1.471 -1.5188 -1.2849  1.4544
17884THY    HM234418   1.106   6.890   1.474 -0.4570  1.0765 -1.3246
17884THY    HM334419   1.200   6.738   1.498 -2.6007 -0.6024 -0.3342
17884THY    CA634420   1.149   6.981   1.723 -0.1886 -0.0017 -0.3299
17884THY    HA634421   1.101   7.049   1.653 -0.4405  2.6347  2.4091
17885THY      O34422   8.278   1.520   7.253 -0.1762  0.1785  0.3037
17885THY     HO34423   8.203   1.464   7.228  0.3269  2.0524 -1.3234
17885THY    CA134424   8.355   1.452   7.341 -0.0702  0.8362  0.0096
17885THY    CA234425   8.426   1.505   7.451  0.0907  0.1057  0.6991
17885THY    CP134426   8.425   1.660   7.467 -0.1933  0.7954 -0.1296
17885THY    HP134427   8.381   1.707   7.378  2.1960 -0.0191  0.6847
17885THY    CP234428   8.566   1.711   7.477 -0.3278 -0.5545  0.1461
17885THY    HP234429   8.623   1.680   7.389  2.1040  0.7915  0.5525
17885THY    HP334430   8.629   1.669   7.555  0.4706 -1.8013 -1.0582
17885THY    HP434431   8.561   1.820   7.481 -2.1004  0.7678  0.0595
17885THY    CP334432   8.356   1.697   7.596 -0.3992  0.0402 -0.8385
17885THY    HP534433   8.257   1.651   7.597  0.8062 -0.4775 -3.6165
17885THY    HP634434   8.343   1.805   7.613  2.6981  0.9172 -0.4929
17885THY    HP734435   8.408   1.652   7.682  1.4522 -0.3362  0.4402
17885THY    CA334436   8.500   1.421   7.535 -0.2204 -0.7210  0.7506
17885THY    HA334437   8.563   1.464   7.612  0.1585  0.2915 -1.4498
17885THY    CA434438   8.484   1.284   7.519  0.0874  0.9268  0.4020
17885THY    HA434439   8.543   1.216   7.581 -1.0490  0.3939 -1.1337
17885THY    CA534440   8.402   1.232   7.419 -0.4547  0.1520  0.1040
17885THY    CM134441   8.398   1.082   7.398  0.1835  0.2274 -0.2244
17885THY    HM134442   8.298   1.041   7.382 -0.8791  0.9723  1.9010
17885THY    HM234443   8.435   1.025   7.484 -0.6804 -0.6239 -2.1504
17885THY    HM334444   8.450   1.061   7.304  1.4969  0.8940 -0.0700
17885THY    CA634445   8.338   1.315   7.335  0.2990  0.3558  0.0683
17885THY    HA634446   8.272   1.281   7.255  0.7141  0.3588 -0.7937
17886THY      O34447   3.760   8.948   6.113  0.1274 -0.0010 -0.0451
17886THY     HO34448   3.756   8.969   6.018  0.1239 -0.0339 -0.1957
17886THY    CA134449   3.858   9.034   6.156  0.3528 -0.0365 -0.9436
17886THY    CA234450   3.871   9.066   6.285 -0.0421  0.5618  0.2250
17886THY    CP134451   3.778   9.012   6.388  1.2142  0.2792  0.7180
17886THY    HP134452   3.710   8.936   6.349  3.0779 -1.2346 -0.2401
17886THY    CP234453   3.699   9.125   6.463 -0.4219  0.6364  0.7503
17886THY    HP234454   3.621   9.087   6.530  0.2572  2.0073  1.6770
17886THY    HP334455   3.668   9.214   6.407  0.2334  1.6271  1.6315
17886THY    HP434456   3.768   9.168   6.537 -0.7268  2.0003 -0.9772
17886THY    CP334457   3.857   8.923   6.487  0.2336  0.0620 -0.0516
17886THY    HP534458   3.908   8.840   6.437  1.0192 -0.1224  0.5291
17886THY    HP634459   3.787   8.872   6.553  1.5256  1.0129 -0.6565
17886THY    HP734460   3.923   8.989   6.545 -2.1333  0.7440  1.8318
17886THY    CA334461   3.980   9.144   6.322 -0.2503 -0.3387 -0.5750
17886THY    HA334462   3.992   9.173   6.426  3.1070 -0.9823  0.8459
17886THY    CA434463   4.082   9.183   6.227 -0.3117 -0.3452  0.1606
17886THY    HA434464   4.166   9.247   6.254 -1.7317 -0.3373  2.1111
17886THY    CA534465   4.061   9.147   6.095 -0.4741  0.2681  0.2617
17886THY    CM134466   4.168   9.184   5.993 -0.0962 -0.9182 -0.4400
17886THY    HM134467   4.270   9.150   6.014 -0.2850 -2.5279 -2.1628
17886THY    HM234468   4.169   9.293   5.981 -1.7857 -1.0865 -0.4161
17886THY    HM334469   4.145   9.144   5.894 -1.2768 -0.3910 -1.1265
17886THY    CA634470   3.952   9.071   6.060 -0.0976  0.2673 -0.7848
17886THY    HA634471   3.947   9.044   5.955 -0.5320 -0.3026  1.3105
17887THY      O34472   6.996   5.263   2.356 -1.1134 -0.2832 -0.2905
17887THY     HO34473   7.005   5.229   2.266 -2.3001 -0.3698 -0.4095
17887THY    CA134474   7.051   5.391   2.368 -0.4581  0.6958 -0.5833
17887THY    CA234475   7.031   5.471   2.485  0.0210 -0.4968  0.2947
17887THY    CP134476   6.964   5.422   2.605 -0.1231 -0.9806  0.4867
17887THY    HP134477   6.977   5.313   2.608  2.7635  1.2735  0.7906
17887THY    CP234478   6.816   5.459   2.599  0.2473 -0.1820 -0.1151
17887THY    HP234479   6.812   5.569   2.599  1.5216 -2.0741 -0.0169
17887THY    HP334480   6.765   5.407   2.681  2.9206  3.1663  2.0874
17887THY    HP434481   6.779   5.428   2.501  0.0342 -0.0209 -0.3724
17887THY    CP334482   7.017   5.460   2.742 -0.3725  0.4882  0.5390
17887THY    HP534483   7.115   5.412   2.751 -1.1674  0.9446 -1.0827
17887THY    HP634484   6.947   5.432   2.822 -0.4523 -0.3834 -2.0419
17887THY    HP734485   7.033   5.568   2.755 -1.0777 -1.1205  0.8754
17887THY    CA334486   7.071   5.607   2.485  0.1907  0.7315  0.0496
17887THY    HA334487   7.050   5.665   2.575 -0.0914 -0.2101  1.4550
17887THY    CA434488   7.155   5.646   2.374  0.4917  0.3417 -0.4716
17887THY    HA434489   7.184   5.750   2.370 -2.3396  1.3580  0.4580
17887THY    CA534490   7.162   5.574   2.250  1.2910 -0.1812  0.0565
17887THY    CM134491   7.218   5.644   2.137  0.3375 -0.0481 -0.2361
17887THY    HM134492   7.312   5.693   2.164 -0.9918  1.2824  1.7329
17887THY    HM234493   7.144   5.724   2.122  0.8242  0.7151  0.3747
17887THY    HM334494   7.207   5.578   2.050 -1.0869  0.5979 -0.8862
17887THY    CA634495   7.107   5.443   2.249  0.1981 -0.1259 -0.0000
17887THY    HA634496   7.104   5.387   2.156 -1.7598 -1.4035  2.0609
17888THY      O34497   7.017   9.528   7.269  0.1984 -0.4564 -0.6363
17888THY     HO34498   7.064   9.547   7.186  0.7308  0.2477  1.3766
17888THY    CA134499   6.972   9.404   7.273 -0.0052  0.1820  0.5077
17888THY    CA234500   6.920   9.340   7.390 -0.0244 -0.5063  0.2886
17888THY    CP134501   6.915   9.407   7.529 -0.2944 -0.3979  0.1364
17888THY    HP134502   6.970   9.501   7.518 -1.6624 -1.0763  0.8942
17888THY    CP234503   6.989   9.322   7.632 -0.3421 -0.0561  0.1927
17888THY    HP234504   6.936   9.234   7.672 -0.1987  0.3894  0.3061
17888THY    HP334505   7.033   9.370   7.720  0.1237  0.7302 -1.6018
17888THY    HP434506   7.078   9.282   7.583 -0.4317  0.0578 -0.1555
17888THY    CP334507   6.768   9.446   7.579  0.0945  0.0912  0.8221
17888THY    HP534508   6.709   9.479   7.493 -0.1479 -0.1695 -0.2386
17888THY    HP634509   6.772   9.520   7.659  1.2521  1.1494 -0.3216
17888THY    HP734510   6.726   9.352   7.617 -0.3161 -0.1148  0.9194
17888THY    CA334511   6.868   9.212   7.375  0.3370 -0.6980  0.0238
17888THY    HA334512   6.828   9.160   7.461  0.3499  0.9552  2.5598
17888THY    CA434513   6.859   9.151   7.252 -0.1742 -0.2683  0.1560
17888THY    HA434514   6.805   9.058   7.257 -2.3921 -3.3905  1.0927
17888THY    CA534515   6.902   9.211   7.140  0.2641 -0.1674  0.6191
17888THY    CM134516   6.889   9.128   7.015 -0.5179 -0.0677  0.0600
17888THY    HM134517   6.962   9.178   6.950  1.0017  0.6598 -1.1215
17888THY    HM234518   6.790   9.123   6.968 -0.5595  0.1504 -1.7047
17888THY    HM334519   6.926   9.025   7.024 -0.5013 -0.4973  0.0250
17888THY    CA634520   6.957   9.338   7.145 -0.4187 -0.2480 -0.2279
17888THY    HA634521   6.994   9.391   7.058  1.4018  1.8293  2.1076
17889THY      O34522   1.924   2.055   4.183  0.0367 -0.6738  0.5112
17889THY     HO34523   1.836   2.096   4.175  0.7063 -2.0530  1.7490
17889THY    CA134524   1.932   1.976   4.295  0.3276 -0.7556 -0.6964
17889THY    CA234525   2.024   1.865   4.308  0.0602  0.3730  0.3578
17889THY    CP134526   2.123   1.831   4.198 -0.0938 -0.4189  0.7250
17889THY    HP134527   2.100   1.898   4.114 -1.6265  0.2033  1.0334
17889THY    CP234528   2.084   1.685   4.152 -0.3061 -0.1607 -0.1448
17889THY    HP234529   1.979   1.672   4.123 -0.1100 -0.3314 -1.4335
17889THY    HP334530   2.106   1.611   4.229 -2.2219 -0.7535 -1.4226
17889THY    HP434531   2.142   1.659   4.063  1.2030  0.4554  0.9931
17889THY    CP334532   2.273   1.842   4.241 -0.5774 -0.3735 -0.2533
17889THY    HP534533   2.304   1.946   4.254 -0.5386 -2.1498 -0.0133
17889THY    HP634534   2.336   1.807   4.159  1.0611  0.0778  1.4838
17889THY    HP734535   2.282   1.777   4.329  1.0064  1.7550  2.6300
17889THY    CA334536   2.018   1.794   4.431  0.0158 -0.1582  0.4886
17889THY    HA334537   2.081   1.707   4.444  1.3737  1.1315  1.6080
17889THY    CA434538   1.914   1.818   4.522 -0.5066  0.6745 -0.9546
17889THY    HA434539   1.906   1.757   4.611  0.3891  1.4420  0.0109
17889THY    CA534540   1.827   1.929   4.507 -0.3504  0.2221  0.0112
17889THY    CM134541   1.729   1.971   4.613 -0.5565 -0.0788  0.1999
17889THY    HM134542   1.626   1.962   4.575 -0.2255 -1.3056  1.2922
17889THY    HM234543   1.738   2.078   4.635 -3.1303  1.3972  0.2138
17889THY    HM334544   1.739   1.906   4.700  1.3666 -1.1154 -0.9828
17889THY    CA634545   1.840   2.008   4.393 -0.2197 -0.3114 -0.2388
17889THY    HA634546   1.776   2.096   4.386 -0.4459  0.7007 -0.3176
17890THY      O34547   6.298   0.368   3.094 -0.4196 -0.0622  0.2085
17890THY     HO34548   6.207   0.379   3.060 -0.1125 -0.5213  1.4152
17890THY    CA134549   6.329   0.478   3.164  0.4413  0.8424 -0.0610
17890THY    CA234550   6.448   0.494   3.228 -0.6519 -0.5491  0.1967
17890THY    CP134551   6.541   0.376   3.250 -0.5860 -0.0791 -0.3587
17890THY    HP134552   6.501   0.292   3.192  0.3673  0.3847 -1.1508
17890THY    CP234553   6.549   0.335   3.396  0.6271  0.5546  0.4394
17890THY    HP234554   6.446   0.312   3.426  1.3398  1.8896 -1.2177
17890THY    HP334555   6.569   0.418   3.466 -0.2051  0.9881  0.2942
17890THY    HP434556   6.614   0.247   3.401  0.9663 -1.9135  0.4911
17890THY    CP334557   6.688   0.401   3.198  0.1889  0.4728  0.3306
17890THY    HP534558   6.688   0.384   3.090 -2.2186 -0.4906  4.7058
17890THY    HP634559   6.765   0.345   3.252 -0.3483  1.4570  0.5056
17890THY    HP734560   6.727   0.503   3.213 -0.2331 -0.4672  0.6443
17890THY    CA334561   6.480   0.627   3.278 -0.0872  0.3495 -0.8573
17890THY    HA334562   6.576   0.653   3.323 -0.6638  0.7346  0.7344
17890THY    CA434563   6.379   0.732   3.270  0.2276  0.4996 -0.2236
17890THY    HA434564   6.399   0.832   3.307  0.8232  1.1863 -0.5862
17890THY    CA534565   6.255   0.711   3.209 -0.6279  0.0561  0.3260
17890THY    CM134566   6.159   0.816   3.200  0.4136  0.2888  0.8831
17890THY    HM134567   6.121   0.838   3.300 -3.7249 -0.8152 -0.1565
17890THY    HM234568   6.073   0.783   3.140  0.5991  0.2130  0.5315
17890THY    HM334569   6.197   0.912   3.163 -1.1856 -1.1146  1.0341
17890THY    CA634570   6.233   0.582   3.159  0.1250  0.2747 -0.2168
17890THY    HA634571   6.140   0.557   3.107  1.1159 -1.4959 -0.4014
17891THY      O34572   5.848   7.861   1.681 -0.1637 -0.3576  0.3274
17891THY     HO34573   5.924   7.921   1.676  0.9265 -3.1388 -1.0860
17891THY    CA134574   5.914   7.739   1.685  0.6796 -0.2779 -1.0106
17891THY    CA234575   5.844   7.623   1.721  0.1414 -0.1567  0.7761
17891THY    CP134576   5.694   7.632   1.769 -0.0779 -0.9383  0.9680
17891THY    HP134577   5.654   7.734   1.765  0.2354 -1.0876  1.0860
17891THY    CP234578   5.667   7.585   1.917  1.0371  0.1237 -0.6334
17891THY    HP234579   5.706   7.484   1.934  1.4319 -0.1241 -0.5241
17891THY    HP334580   5.558   7.584   1.931  1.0401  0.2019 -1.7507
17891THY    HP434581   5.721   7.645   1.990  1.4720 -0.8437  0.1870
17891THY    CP334582   5.614   7.542   1.675 -0.7695  0.5321 -0.0383
17891THY    HP534583   5.661   7.444   1.664  0.9703  2.7075  0.4653
17891THY    HP634584   5.634   7.595   1.580 -1.7157  0.2719 -0.1329
17891THY    HP734585   5.505   7.543   1.682 -0.7237  1.5156 -0.6920
17891THY    CA334586   5.914   7.499   1.723 -0.6563 -0.0135 -0.0102
17891THY    HA334587   5.870   7.404   1.750 -0.8375 -0.0271  0.0699
17891THY    CA434588   6.047   7.495   1.693 -0.4084  0.3334  1.5299
17891THY    HA434589   6.104   7.403   1.703  1.3220 -2.5852  2.1278
17891THY    CA534590   6.116   7.608   1.659  0.2165  0.4672 -0.0237
17891THY    CM134591   6.258   7.604   1.617 -1.0432  0.0042  0.6275
17891THY    HM134592   6.334   7.658   1.675  0.1290 -0.0529 -0.9094
17891THY    HM234593   6.265   7.644   1.515 -0.1961 -0.2493 -0.1514
17891THY    HM334594   6.299   7.503   1.620  2.5332 -0.5568  1.9112
17891THY    CA634595   6.042   7.731   1.651  0.1536  0.0143 -0.2618
17891THY    HA634596   6.097   7.823   1.634  0.9926  2.7689 -0.1570
17892THY      O34597   0.993   6.966   6.734 -0.1724  0.2376 -0.3137
17892THY     HO34598   0.976   6.973   6.829  0.1538  0.2577  0.3067
17892THY    CA134599   0.923   7.063   6.679 -0.0914 -0.2032 -0.6058
17892THY    CA234600   0.918   7.087   6.541  0.5735 -0.4619 -0.5213
17892THY    CP134601   1.005   6.998   6.448  0.6289  0.3299  0.0754
17892THY    HP134602   1.069   6.934   6.510  2.0842 -2.0606 -0.8947
17892THY    CP234603   1.102   7.079   6.362  0.8929  0.0367  0.0544
17892THY    HP234604   1.172   7.007   6.318 -1.4285 -1.0272 -1.6973
17892THY    HP334605   1.164   7.140   6.428  0.8813 -1.3319  1.6418
17892THY    HP434606   1.057   7.135   6.279  1.4498  0.8364  1.7308
17892THY    CP334607   0.922   6.906   6.362  0.2342  0.0049  0.0097
17892THY    HP534608   0.847   6.856   6.425  1.4002  0.7529 -0.8333
17892THY    HP634609   0.981   6.820   6.329  1.1784  0.9407  0.2765
17892THY    HP734610   0.864   6.953   6.282 -1.4747  0.8707 -0.5253
17892THY    CA334611   0.821   7.174   6.493  0.3822 -0.7002  0.0088
17892THY    HA334612   0.813   7.188   6.385 -0.6393 -0.7160 -0.5642
17892THY    CA434613   0.752   7.262   6.577  0.0657 -0.0859  0.8066
17892THY    HA434614   0.694   7.342   6.532  3.0267 -2.6875  1.7018
17892THY    CA534615   0.777   7.252   6.710 -0.1117  0.0705 -0.4825
17892THY    CM134616   0.716   7.345   6.810  0.1366  0.9851 -0.5616
17892THY    HM134617   0.722   7.447   6.770  1.7529  0.6028 -0.7656
17892THY    HM234618   0.760   7.341   6.910  3.4567 -0.3169 -0.4290
17892THY    HM334619   0.609   7.322   6.814 -0.1151 -0.2184  0.3440
17892THY    CA634620   0.868   7.154   6.766  0.9720 -0.4277  0.1971
17892THY    HA634621   0.873   7.148   6.875  0.6266 -0.2519  2.3679
17893THY      O34622   4.616   0.419   4.492 -0.8160 -0.3415  0.0230
17893THY     HO34623   4.568   0.504   4.492 -0.9483 -0.4424 -0.0496
17893THY    CA134624   4.597   0.347   4.605 -0.2033  0.2395  0.1953
17893THY    CA234625   4.671   0.234   4.640 -0.5642  0.3813  0.3296
17893THY    CP134626   4.779   0.181   4.544 -0.1900 -0.2001  0.1110
17893THY    HP134627   4.826   0.268   4.498 -1.7346 -1.9041  0.1053
17893THY    CP234628   4.721   0.086   4.441  0.1335 -0.2283  0.2332
17893THY    HP234629   4.793   0.024   4.387  1.5376  1.1698  0.5930
17893THY    HP334630   4.667   0.152   4.372  0.7118 -0.9308 -0.0025
17893THY    HP434631   4.649   0.018   4.488  0.7420  0.0146 -0.2555
17893THY    CP334632   4.892   0.108   4.611  0.1710 -0.5105 -0.4202
17893THY    HP534633   4.933   0.153   4.702  2.1199 -1.5290 -0.0440
17893THY    HP634634   4.981   0.102   4.547  1.7651  1.6495 -1.4112
17893THY    HP734635   4.862   0.005   4.634 -1.3777 -2.1902 -0.3899
17893THY    CA334636   4.649   0.185   4.773 -0.7156 -0.1830 -0.5920
17893THY    HA334637   4.718   0.110   4.813 -1.6254  0.0481 -1.3205
17893THY    CA434638   4.546   0.242   4.855 -0.1811  0.5064 -0.7946
17893THY    HA434639   4.532   0.208   4.957 -0.1985  0.2269 -1.6718
17893THY    CA534640   4.460   0.336   4.800 -0.9553  0.5611  0.3527
17893THY    CM134641   4.335   0.380   4.874 -0.0003  0.7091  0.7047
17893THY    HM134642   4.363   0.445   4.957 -1.7003  0.1488  2.2555
17893THY    HM234643   4.278   0.295   4.914 -0.0870 -1.4998 -0.3495
17893THY    HM334644   4.271   0.445   4.813  0.1936 -1.7649 -1.2457
17893THY    CA634645   4.492   0.399   4.681  0.2816  0.6822  0.4126
17893THY    HA634646   4.444   0.494   4.658  0.2235 -0.1729  0.1779
17894THY      O34647   7.781   6.222   2.223  0.6079 -0.5075 -0.0715
17894THY     HO34648   7.768   6.311   2.260  1.9108  1.6586 -0.7062
17894THY    CA134649   7.708   6.150   2.309  0.5749 -0.4144 -0.3582
17894THY    CA234650   7.717   6.009   2.318 -0.0004  0.3251  0.4710
17894THY    CP134651   7.808   5.930   2.222 -0.8927 -0.0114  0.1990
17894THY    HP134652   7.886   5.995   2.181 -0.4393  2.1989  1.1215
17894THY    CP234653   7.718   5.884   2.103  0.2461  0.4503 -0.6690
17894THY    HP234654   7.690   5.972   2.044 -0.0966  0.3131 -0.8705
17894THY    HP334655   7.626   5.847   2.150  0.3935  2.2360  1.0552
17894THY    HP434656   7.772   5.822   2.030 -0.7032 -1.7660  1.0075
17894THY    CP334657   7.876   5.812   2.290  0.3054 -0.1256 -0.3261
17894THY    HP534658   7.933   5.750   2.220 -1.1438  0.3606 -2.2959
17894THY    HP634659   7.812   5.731   2.326 -1.4493  0.1791  1.1278
17894THY    HP734660   7.954   5.845   2.360 -1.0510  3.3164 -3.6808
17894THY    CA334661   7.641   5.941   2.419 -0.2683  0.1819  0.3688
17894THY    HA334662   7.660   5.835   2.430 -1.2001 -0.4018  0.1333
17894THY    CA434663   7.567   6.010   2.508 -0.1769 -0.5252  0.3841
17894THY    HA434664   7.514   5.958   2.587  1.6578  2.0555  2.2140
17894THY    CA534665   7.554   6.144   2.487  0.0976 -0.5917  0.4429
17894THY    CM134666   7.463   6.214   2.582 -0.8507  0.4043 -0.1861
17894THY    HM134667   7.426   6.306   2.535  1.3722  0.2858  0.7163
17894THY    HM234668   7.516   6.226   2.677  0.5358 -0.3647 -0.0249
17894THY    HM334669   7.375   6.158   2.614 -2.1687  0.4432  1.8070
17894THY    CA634670   7.623   6.216   2.398 -0.4095  0.2500  0.3235
17894THY    HA634671   7.621   6.324   2.405  0.5938  0.4636  0.3412
17895THY      O34672   0.649   5.801   4.675 -0.2276 -0.1461 -0.6666
17895THY     HO34673   0.717   5.834   4.736 -1.8491 -0.4159  3.7850
17895THY    CA134674   0.538   5.787   4.748 -0.2063 -0.4382 -0.2166
17895THY    CA234675   0.427   5.692   4.720 -0.0261  0.2151  0.2597
17895THY    CP134676   0.436   5.608   4.587  0.1048 -0.2014 -0.3423
17895THY    HP134677   0.523   5.636   4.528 -1.3234 -1.6721  1.2464
17895THY    CP234678   0.314   5.622   4.500  0.4753 -0.3967  0.1190
17895THY    HP234679   0.298   5.728   4.478  1.2873 -0.1827  0.2906
17895THY    HP334680   0.217   5.589   4.539  1.1403  2.1772  1.0112
17895THY    HP434681   0.321   5.578   4.399  1.2081 -0.4203  0.2718
17895THY    CP334682   0.460   5.460   4.613 -0.2167 -0.6261 -0.0159
17895THY    HP534683   0.550   5.442   4.672  0.0453 -1.1264 -0.3748
17895THY    HP634684   0.477   5.407   4.518  1.5006 -0.1046 -0.4747
17895THY    HP734685   0.372   5.420   4.663 -0.2135 -0.2928  0.3919
17895THY    CA334686   0.324   5.672   4.814 -0.8178  0.1073  0.1050
17895THY    HA334687   0.251   5.594   4.796  0.1841 -1.3169 -0.5693
17895THY    CA434688   0.336   5.732   4.934 -0.1886  0.1842  1.1093
17895THY    HA434689   0.257   5.710   5.005  0.5205  1.3587  2.1597
17895THY    CA534690   0.423   5.829   4.967 -0.4555  0.5628  0.1965
17895THY    CM134691   0.438   5.879   5.106  0.6574 -0.9680 -0.4341
17895THY    HM134692   0.343   5.868   5.160  0.4173 -0.7848  1.9947
17895THY    HM234693   0.451   5.986   5.091 -0.3435  0.9948  0.0225
17895THY    HM334694   0.517   5.830   5.165 -0.6831  0.7555 -0.6392
17895THY    CA634695   0.534   5.852   4.877  0.0625  0.0774  0.2795
17895THY    HA634696   0.616   5.918   4.904  1.0354 -1.4839 -0.2245
17896THY      O34697   7.741   6.314   1.971 -0.6754 -0.0951  0.3600
17896THY     HO34698   7.767   6.252   2.042 -1.9763  0.5949  0.5545
17896THY    CA134699   7.781   6.245   1.861 -0.5790 -0.2630  0.5412
17896THY    CA234700   7.724   6.272   1.733  0.5501  0.2911  0.1880
17896THY    CP134701   7.613   6.382   1.730  0.6904  0.0142 -0.4855
17896THY    HP134702   7.561   6.365   1.825 -1.3128 -1.1077 -0.9293
17896THY    CP234703   7.503   6.371   1.625 -0.1107 -0.4083  0.9706
17896THY    HP234704   7.466   6.267   1.624 -0.3296  1.2760  1.0025
17896THY    HP334705   7.535   6.388   1.522 -1.6390 -1.5177 -2.1000
17896THY    HP434706   7.417   6.435   1.648 -0.8741 -0.6990  0.0809
17896THY    CP334707   7.666   6.525   1.730  0.3268 -0.3251 -0.2077
17896THY    HP534708   7.748   6.545   1.799 -0.3851  0.9598 -1.5205
17896THY    HP634709   7.580   6.583   1.766 -0.9856 -1.5800 -1.2957
17896THY    HP734710   7.684   6.566   1.630  0.5782 -0.1009  0.2348
17896THY    CA334711   7.771   6.190   1.624  0.2173  0.6910  0.5002
17896THY    HA334712   7.725   6.201   1.526  2.4003 -0.4132  0.2460
17896THY    CA434713   7.882   6.110   1.643 -0.4804 -0.2825 -0.2125
17896THY    HA434714   7.924   6.061   1.555 -0.6198 -0.6066  0.2482
17896THY    CA534715   7.939   6.094   1.772 -0.6253  0.1386  0.4633
17896THY    CM134716   8.072   6.012   1.774 -0.5200  0.2208  0.4326
17896THY    HM134717   8.139   6.046   1.855 -1.4380  1.5772 -0.8361
17896THY    HM234718   8.129   6.013   1.681  1.3607  1.3140  1.1426
17896THY    HM334719   8.037   5.910   1.794  1.7671 -3.2908 -1.2314
17896THY    CA634720   7.889   6.160   1.883 -0.5405 -0.0751 -0.5420
17896THY    HA634721   7.935   6.158   1.981  1.3678 -0.8764  0.8315
17897THY      O34722   4.518   8.977   5.906 -0.1317  0.1416 -0.0693
17897THY     HO34723   4.491   9.052   5.850 -1.3635  0.0247 -0.5867
17897THY    CA134724   4.645   8.937   5.885 -0.5765  0.4700 -0.3493
17897THY    CA234725   4.707   8.824   5.928  0.3839  0.4866  0.0804
17897THY    CP134726   4.616   8.710   5.972 -0.8647 -0.1574 -0.4805
17897THY    HP134727   4.513   8.743   5.954 -1.2191  1.1500 -0.8137
17897THY    CP234728   4.620   8.678   6.122 -0.1603  0.2302  0.2319
17897THY    HP234729   4.680   8.590   6.149 -2.8425 -0.4134 -1.9439
17897THY    HP334730   4.518   8.665   6.159 -0.0290  0.7762  0.7259
17897THY    HP434731   4.650   8.768   6.177 -1.4905  0.1886  0.7164
17897THY    CP334732   4.638   8.579   5.901  0.8199  0.1984  0.2652
17897THY    HP534733   4.553   8.513   5.919  0.2336 -2.0781  0.3330
17897THY    HP634734   4.731   8.526   5.926  2.0697 -0.7394  1.9353
17897THY    HP734735   4.644   8.601   5.794  2.2586  0.1761 -0.1199
17897THY    CA334736   4.849   8.810   5.908  0.2590  0.4425  0.3079
17897THY    HA334737   4.892   8.714   5.936  0.3104  1.3860  0.5926
17897THY    CA434738   4.934   8.903   5.839  0.5000  0.6830 -0.0952
17897THY    HA434739   5.041   8.892   5.831  0.4041  0.4774 -0.9270
17897THY    CA534740   4.861   9.020   5.796 -0.3094  0.0825  0.3056
17897THY    CM134741   4.937   9.134   5.731  0.2214  0.5290 -0.0881
17897THY    HM134742   4.880   9.142   5.638  2.5872 -1.0463 -0.7233
17897THY    HM234743   5.040   9.105   5.706  0.3177  0.2260  0.5131
17897THY    HM334744   4.935   9.233   5.778  1.0211 -1.2905  0.8373
17897THY    CA634745   4.731   9.038   5.825  0.4298 -0.2556 -0.0701
17897THY    HA634746   4.685   9.135   5.811  0.9560 -1.1043  0.0560
17898THY      O34747   4.817   5.010   6.233 -0.1240 -0.0054  0.3991
17898THY     HO34748   4.763   4.940   6.192  2.4722 -0.4012 -1.5504
17898THY    CA134749   4.899   4.925   6.298  0.4011  0.9948 -0.1411
17898THY    CA234750   4.990   4.968   6.396 -0.0968  0.0751 -0.1063
17898THY    CP134751   5.006   5.120   6.422  0.3461 -0.4026  0.2137
17898THY    HP134752   4.984   5.174   6.329 -0.1407 -3.0190 -4.0089
17898THY    CP234753   5.143   5.167   6.459  0.3683 -0.2025 -0.6098
17898THY    HP234754   5.147   5.276   6.469 -1.1602  0.2829 -0.5788
17898THY    HP334755   5.220   5.139   6.386  1.6519  0.7648  0.2927
17898THY    HP434756   5.187   5.130   6.553  1.0379  0.7948  2.4157
17898THY    CP334757   4.902   5.162   6.524  0.0373 -0.1500  0.5472
17898THY    HP534758   4.801   5.132   6.496  0.8011 -0.7089 -1.7678
17898THY    HP634759   4.902   5.270   6.537 -0.3976  0.9945  0.4307
17898THY    HP734760   4.917   5.115   6.622  2.3077 -0.6015  0.1900
17898THY    CA334761   5.073   4.869   6.451 -0.2276 -0.1063 -0.8845
17898THY    HA334762   5.155   4.898   6.517  0.1102  0.5002 -3.0051
17898THY    CA434763   5.060   4.736   6.402  0.3283  0.1159 -0.3712
17898THY    HA434764   5.131   4.664   6.442  0.5178  0.5934  0.0712
17898THY    CA534765   4.966   4.698   6.303 -0.6122 -0.1864 -0.5111
17898THY    CM134766   4.969   4.550   6.254 -1.0010  0.0943  0.3873
17898THY    HM134767   4.878   4.497   6.284 -0.7171 -0.2239 -0.2857
17898THY    HM234768   5.058   4.492   6.279 -0.5615 -1.5649  0.2901
17898THY    HM334769   4.973   4.547   6.144  3.2991  0.1087  0.5950
17898THY    CA634770   4.884   4.795   6.247 -0.3368 -0.2278  0.7158
17898THY    HA634771   4.816   4.775   6.165  0.6465 -1.3156  1.7349
17899THY      O34772   7.751   7.720   3.461 -0.0717 -0.2204  0.0524
17899THY     HO34773   7.817   7.656   3.432  0.7838 -0.2335  0.9149
17899THY    CA134774   7.631   7.666   3.443  0.8887 -0.0161  0.5334
17899THY    CA234775   7.503   7.735   3.472  0.2050  0.4562 -0.4372
17899THY    CP134776   7.503   7.879   3.504  0.0533  0.9032 -0.2173
17899THY    HP134777   7.604   7.908   3.535  1.0546 -1.5451 -0.8426
17899THY    CP234778   7.416   7.918   3.621  0.5016 -0.1781  0.2093
17899THY    HP234779   7.445   8.022   3.639  0.6978 -0.1368  0.1483
17899THY    HP334780   7.434   7.849   3.704 -0.5517 -0.4558 -0.4269
17899THY    HP434781   7.311   7.914   3.589  0.8790 -1.4659 -0.1143
17899THY    CP334782   7.463   7.966   3.383 -0.3130  0.3786  0.1992
17899THY    HP534783   7.459   8.073   3.407  0.8236 -0.7802  0.5318
17899THY    HP634784   7.369   7.930   3.341 -0.3141 -0.2410  0.9007
17899THY    HP734785   7.542   7.959   3.307 -0.8761 -0.1587 -0.3072
17899THY    CA334786   7.383   7.661   3.464 -0.4934 -0.1129  0.1395
17899THY    HA334787   7.289   7.712   3.483 -1.0411 -0.2271 -0.8202
17899THY    CA434788   7.393   7.534   3.414  0.7863 -0.1297 -0.1805
17899THY    HA434789   7.300   7.479   3.414 -1.3379 -2.7157  3.0513
17899THY    CA534790   7.511   7.472   3.372  0.7531  0.2669  0.5673
17899THY    CM134791   7.508   7.320   3.350  0.4566  0.0243  0.0411
17899THY    HM134792   7.598   7.268   3.385  0.4305 -0.5218 -0.3817
17899THY    HM234793   7.497   7.299   3.243  1.0420  0.2920 -1.7926
17899THY    HM334794   7.416   7.269   3.381  1.4044  0.2232 -1.6211
17899THY    CA634795   7.637   7.534   3.404 -0.6923  0.3773  0.1054
17899THY    HA634796   7.730   7.481   3.385 -1.4471 -1.1543 -0.7694
17900THY      O34797   3.835   4.125   7.115  0.4008 -0.0177  0.1906
17900THY     HO34798   3.803   4.154   7.203 -0.7158 -0.6111  0.8527
17900THY    CA134799   3.788   4.223   7.034 -1.6670  0.4408  0.2767
17900THY    CA234800   3.730   4.193   6.906 -0.0700  0.0422  0.0850
17900THY    CP134801   3.714   4.049   6.862 -0.2823 -0.3759  0.5971
17900THY    HP134802   3.718   3.981   6.948 -1.4067 -1.8164 -1.4031
17900THY    CP234803   3.827   4.000   6.771 -0.2178 -0.5786  0.1187
17900THY    HP234804   3.804   4.029   6.668 -1.4841 -0.2384  0.4246
17900THY    HP334805   3.843   3.893   6.783  2.3903 -0.1784  0.4743
17900THY    HP434806   3.924   4.038   6.806 -1.0824  1.8255  0.2683
17900THY    CP334807   3.575   4.014   6.795 -0.1619  0.5009  0.1288
17900THY    HP534808   3.567   4.075   6.704 -1.2383 -0.3787 -1.2661
17900THY    HP634809   3.484   4.019   6.856 -0.0487  0.7538 -0.8032
17900THY    HP734810   3.572   3.910   6.761 -5.8826  1.4774 -0.3536
17900THY    CA334811   3.682   4.299   6.819  0.7525  0.1557  0.2335
17900THY    HA334812   3.634   4.277   6.724  0.2369 -0.0179  1.9742
17900THY    CA434813   3.698   4.430   6.875 -0.6809  0.4032  0.0938
17900THY    HA434814   3.660   4.520   6.827 -0.2050  0.3502  0.2721
17900THY    CA534815   3.740   4.456   7.004 -0.5719 -0.2857 -0.3828
17900THY    CM134816   3.745   4.594   7.057  0.7008  0.4353 -0.6798
17900THY    HM134817   3.702   4.674   6.995 -0.7813  1.9705 -0.2181
17900THY    HM234818   3.848   4.615   7.088  0.1750  1.5938  0.2922
17900THY    HM334819   3.693   4.589   7.153  0.8746  0.8040  2.8134
17900THY    CA634820   3.796   4.352   7.080  0.3121 -0.1185  0.1452
17900THY    HA634821   3.834   4.363   7.182  0.7732 -0.0695 -1.5208
17901THY      O34822   0.888   6.887   7.218  0.3220 -0.1312 -0.1062
17901THY     HO34823   0.818   6.821   7.231 -0.3820  0.9581  0.8283
17901THY    CA134824   0.895   6.961   7.333  0.5931 -0.1027  0.9402
17901THY    CA234825   0.919   7.098   7.343 -0.3705 -0.0455  0.1091
17901THY    CP134826   0.933   7.182   7.213  0.0323  0.4137 -0.2819
17901THY    HP134827   0.895   7.118   7.132  0.2061  1.0366 -1.1882
17901THY    CP234828   1.089   7.205   7.189  0.1529  0.2814  0.3456
17901THY    HP234829   1.141   7.272   7.258  1.5726  0.4230 -0.8535
17901THY    HP334830   1.110   7.230   7.085 -0.7160 -0.6391 -2.4008
17901THY    HP434831   1.139   7.108   7.186 -0.7501 -1.1606 -0.1061
17901THY    CP334832   0.862   7.315   7.202  0.1585  0.3113  0.6424
17901THY    HP534833   0.896   7.380   7.121 -3.9184 -3.1023 -1.0463
17901THY    HP634834   0.872   7.374   7.294  2.1411  0.6660 -0.1431
17901THY    HP734835   0.755   7.302   7.183  0.4381 -1.0649  0.2476
17901THY    CA334836   0.919   7.157   7.472  0.4982 -0.6969 -0.1465
17901THY    HA334837   0.935   7.264   7.482 -2.5424 -0.1374  0.3526
17901THY    CA434838   0.909   7.082   7.588  0.2437 -0.6327 -0.2272
17901THY    HA434839   0.883   7.119   7.686 -2.1958 -0.6456 -1.6521
17901THY    CA534840   0.905   6.942   7.569 -0.0058 -0.9978 -0.0578
17901THY    CM134841   0.918   6.840   7.680  0.6750  0.3785  0.7616
17901THY    HM134842   0.820   6.819   7.723  0.0943 -1.7332 -1.3090
17901THY    HM234843   0.979   6.883   7.760 -0.8440  1.4667  0.9520
17901THY    HM334844   0.969   6.746   7.655  0.4354 -0.1155  0.7567
17901THY    CA634845   0.891   6.881   7.448 -0.5552  0.5679  0.7928
17901THY    HA634846   0.873   6.775   7.433 -1.8364  0.1877  1.0492
17902THY      O34847   8.692   6.160   6.914  0.0149  0.5377 -0.1526
17902THY     HO34848   8.734   6.166   6.826  0.0358  0.5882  0.5401
17902THY    CA134849   8.562   6.131   6.886 -0.2836 -0.2497 -0.1796
17902THY    CA234850   8.473   6.115   6.996 -0.2429 -0.3741  0.0660
17902THY    CP134851   8.531   6.116   7.144  0.3322  0.1363  0.4326
17902THY    HP134852   8.626   6.170   7.155  2.1556  1.4373 -2.7422
17902THY    CP234853   8.554   5.975   7.190  0.5011  0.4631  0.3851
17902THY    HP234854   8.607   5.964   7.285  0.2632  0.7436  1.5153
17902THY    HP334855   8.606   5.934   7.103  0.6699  1.2875 -1.2165
17902THY    HP434856   8.458   5.926   7.207  0.4362 -2.0164 -0.4748
17902THY    CP334857   8.432   6.190   7.237 -0.4646 -0.6535  0.3859
17902THY    HP534858   8.475   6.201   7.337 -0.8782 -0.4317  0.0245
17902THY    HP634859   8.340   6.135   7.258  0.0207  2.0079  0.4511
17902THY    HP734860   8.409   6.289   7.197 -1.6424  1.2649  0.9442
17902THY    CA334861   8.339   6.097   6.970 -0.0239  0.4534 -0.3921
17902THY    HA334862   8.278   6.074   7.057 -1.3151 -0.6949 -1.5131
17902THY    CA434863   8.289   6.112   6.838 -0.7354  0.1191  0.2103
17902THY    HA434864   8.187   6.086   6.813 -0.9832 -0.4412  1.6509
17902THY    CA534865   8.374   6.125   6.732 -0.2881  0.7265 -0.1019
17902THY    CM134866   8.327   6.123   6.590  0.4551  0.1116 -0.6109
17902THY    HM134867   8.379   6.199   6.530  2.0923  2.5723  0.3498
17902THY    HM234868   8.220   6.149   6.588  0.1902  1.6057 -1.4892
17902THY    HM334869   8.342   6.029   6.537  0.6829  1.0241 -1.0985
17902THY    CA634870   8.517   6.137   6.757  0.8559 -0.8680  0.3172
17902THY    HA634871   8.584   6.160   6.675  0.5181 -0.4282  3.2538
17903THY      O34872   8.173   8.577   4.895 -0.3050  0.6643 -0.1578
17903THY     HO34873   8.090   8.544   4.856 -0.0142 -0.8032  0.7203
17903THY    CA134874   8.143   8.692   4.957 -0.1102  0.4379  0.5284
17903THY    CA234875   8.240   8.783   5.012  0.3895  0.0539  0.5599
17903THY    CP134876   8.394   8.754   4.990 -0.4495 -0.1330  0.0672
17903THY    HP134877   8.414   8.676   4.915  3.0819  2.1056 -1.4125
17903THY    CP234878   8.472   8.704   5.109 -0.5666  0.3356  0.2905
17903THY    HP234879   8.571   8.662   5.087 -0.6294 -0.2061  0.4311
17903THY    HP334880   8.422   8.620   5.160 -0.4912 -1.9594 -1.2277
17903THY    HP434881   8.495   8.775   5.189 -0.4947 -0.4646  1.1675
17903THY    CP334882   8.462   8.881   4.942  0.7227  0.3047  0.4169
17903THY    HP534883   8.463   8.957   5.020 -1.4434  0.6705  0.1508
17903THY    HP634884   8.412   8.918   4.852  0.8030  0.6846  1.4592
17903THY    HP734885   8.562   8.858   4.905 -0.3524 -1.6257 -1.6225
17903THY    CA334886   8.190   8.897   5.085 -0.1380 -0.2412  0.1470
17903THY    HA334887   8.262   8.967   5.125  1.7433 -0.6933 -1.4239
17903THY    CA434888   8.052   8.918   5.099  0.7368 -0.8533  0.0637
17903THY    HA434889   8.020   9.010   5.147  0.7639 -0.3774 -0.1734
17903THY    CA534890   7.958   8.831   5.046 -0.2561  0.4255  0.3374
17903THY    CM134891   7.815   8.872   5.043  0.6824 -0.7173 -0.0167
17903THY    HM134892   7.789   8.947   5.119  1.1429 -1.1129  0.5488
17903THY    HM234893   7.747   8.787   5.053 -0.3200 -2.0882  0.5948
17903THY    HM334894   7.797   8.916   4.945  1.7803 -1.4439 -1.1119
17903THY    CA634895   8.007   8.720   4.974 -0.1200  0.0289  0.0685
17903THY    HA634896   7.936   8.651   4.932  0.6714 -1.1246 -0.0706
17904THY      O34897   8.057   5.522   6.405 -0.0132 -0.1115 -0.1598
17904THY     HO34898   8.069   5.598   6.464 -1.0565 -1.3230  1.0029
17904THY    CA134899   7.954   5.451   6.452  0.2911  0.2263 -0.8690
17904THY    CA234900   7.882   5.366   6.374 -0.5023 -0.5698 -0.0483
17904THY    CP134901   7.920   5.346   6.225 -0.1358 -0.0968 -0.2738
17904THY    HP134902   7.995   5.421   6.197  1.0547  2.2843 -0.4572
17904THY    CP234903   7.808   5.371   6.131  0.1097 -0.4978 -0.0511
17904THY    HP234904   7.722   5.312   6.164 -1.3640 -2.0883  1.1278
17904THY    HP334905   7.829   5.349   6.026 -1.3730 -0.9585  0.6106
17904THY    HP434906   7.783   5.476   6.147 -1.5445 -0.5698 -0.4042
17904THY    CP334907   7.976   5.208   6.205  0.5804 -0.6419 -0.6139
17904THY    HP534908   8.071   5.205   6.261  0.2670  0.2013  2.3055
17904THY    HP634909   7.973   5.180   6.099 -3.5452 -0.5536 -1.0395
17904THY    HP734910   7.910   5.139   6.259  0.2191 -1.5834 -1.0251
17904THY    CA334911   7.774   5.295   6.441  0.1009  0.3468 -1.1483
17904THY    HA334912   7.711   5.220   6.393 -2.2788  2.1591 -0.4246
17904THY    CA434913   7.745   5.327   6.582 -0.4275  0.4981 -0.0249
17904THY    HA434914   7.676   5.265   6.639 -0.0307 -0.0190 -0.9657
17904THY    CA534915   7.813   5.426   6.650 -0.3185 -0.3287  0.0691
17904THY    CM134916   7.790   5.440   6.794  0.0130 -0.0070  0.3938
17904THY    HM134917   7.694   5.477   6.833  0.2476 -0.1532  1.1866
17904THY    HM234918   7.865   5.510   6.833 -1.6697 -1.1239  2.9764
17904THY    HM334919   7.808   5.343   6.841 -2.0175 -1.9389 -1.0171
17904THY    CA634920   7.924   5.481   6.584  0.3591 -0.8420  0.9741
17904THY    HA634921   7.998   5.532   6.644  0.6140  0.8922 -1.2625
17905THY      O34922   3.900   6.086   5.396 -0.1909 -0.1122 -0.0937
17905THY     HO34923   3.995   6.069   5.382  0.3430 -1.1507  3.0461
17905THY    CA134924   3.884   6.196   5.315  0.0637 -0.2380  0.3999
17905THY    CA234925   3.759   6.229   5.262 -0.4272 -0.0898  0.0391
17905THY    CP134926   3.646   6.133   5.289 -0.1403  0.2594 -0.0757
17905THY    HP134927   3.669   6.040   5.342 -2.3191  0.1321 -0.7489
17905THY    CP234928   3.580   6.085   5.162 -0.4937 -0.6148 -0.3863
17905THY    HP234929   3.651   6.070   5.080  1.0771  0.8838 -1.4265
17905THY    HP334930   3.497   6.143   5.120 -0.1506 -1.2024 -0.3072
17905THY    HP434931   3.543   5.984   5.179  0.6890  1.4911 -0.5102
17905THY    CP334932   3.540   6.204   5.374  0.0612 -0.0526 -0.4710
17905THY    HP534933   3.587   6.241   5.466 -0.5160 -0.2407  0.7828
17905THY    HP634934   3.470   6.136   5.422 -0.6481 -0.5691 -0.1145
17905THY    HP734935   3.487   6.290   5.331  1.0571  0.5318  0.4590
17905THY    CA334936   3.740   6.339   5.166 -0.4107 -1.0943  0.5824
17905THY    HA334937   3.642   6.355   5.124 -0.6561 -0.3865  0.9856
17905THY    CA434938   3.854   6.410   5.138 -0.2675 -0.2425  0.6208
17905THY    HA434939   3.855   6.488   5.063 -0.5458 -0.9822 -0.0718
17905THY    CA534940   3.980   6.378   5.202  0.2495  0.1859  0.3168
17905THY    CM134941   4.105   6.449   5.163  0.2531 -0.2266  0.8072
17905THY    HM134942   4.090   6.523   5.084  1.4310  0.4049  1.7644
17905THY    HM234943   4.177   6.380   5.119  0.7516 -0.5706  1.5287
17905THY    HM334944   4.155   6.502   5.246  1.4985 -0.2806 -0.2456
17905THY    CA634945   3.997   6.262   5.282 -0.0115 -0.0706 -0.4850
17905THY    HA634946   4.095   6.245   5.325  0.6229 -0.2654  2.1731
17906THY      O34947   5.776   2.034   3.926  0.0658  0.0226 -0.0203
17906THY     HO34948   5.775   2.124   3.890 -5.0407 -0.0661  0.1716
17906THY    CA134949   5.695   2.044   4.039  0.4339  0.1155 -0.4084
17906THY    CA234950   5.600   1.947   4.073 -0.1171  0.1055  0.2839
17906THY    CP134951   5.579   1.825   3.989  0.0934 -0.9057  0.3038
17906THY    HP134952   5.645   1.830   3.902  1.2900 -0.0404  0.1838
17906THY    CP234953   5.434   1.821   3.945 -0.0481 -0.2541  0.4779
17906THY    HP234954   5.414   1.740   3.874 -1.2731  0.0505  0.4970
17906THY    HP334955   5.417   1.912   3.885 -3.6137  1.9009  1.4510
17906THY    HP434956   5.365   1.843   4.027 -0.2978 -0.5265  0.7183
17906THY    CP334957   5.621   1.703   4.076  0.2115 -0.3946 -0.0214
17906THY    HP534958   5.626   1.617   4.009 -1.3357 -2.9281  1.7188
17906THY    HP634959   5.560   1.687   4.166 -0.3061 -0.4372  1.5252
17906THY    HP734960   5.725   1.722   4.103  0.5425 -2.3943  1.2969
17906THY    CA334961   5.528   1.967   4.192  0.1320 -0.0232 -0.3618
17906THY    HA334962   5.461   1.887   4.222  1.5222 -0.8590 -1.8816
17906THY    CA434963   5.547   2.086   4.274  0.1375  0.0215 -0.2900
17906THY    HA434964   5.498   2.097   4.370  3.8260  2.1424 -0.6639
17906THY    CA534965   5.645   2.183   4.242  0.2463 -0.3118  0.4693
17906THY    CM134966   5.669   2.303   4.330  0.5191 -0.4692  0.5293
17906THY    HM134967   5.740   2.360   4.269  0.7198 -0.7659 -0.0317
17906THY    HM234968   5.704   2.281   4.431  2.6276 -1.3706 -0.5861
17906THY    HM334969   5.579   2.365   4.332  0.8582 -0.4434  1.0253
17906THY    CA634970   5.718   2.164   4.119  0.4395 -0.0169 -0.1941
17906THY    HA634971   5.786   2.242   4.088 -1.9310 -2.3231  1.1291
17907THY      O34972   2.627   7.610   4.606  0.0062 -0.5426 -0.5022
17907THY     HO34973   2.625   7.582   4.700  1.8026  0.5371  2.4666
17907THY    CA134974   2.586   7.735   4.621  0.9096  0.2164  0.4170
17907THY    CA234975   2.536   7.804   4.510  0.1252  0.2231  0.4272
17907THY    CP134976   2.529   7.741   4.372  0.2881 -0.6793  0.0182
17907THY    HP134977   2.507   7.634   4.383 -0.8353 -1.1395  0.1958
17907THY    CP234978   2.669   7.745   4.297 -0.0329  1.0365 -0.6631
17907THY    HP234979   2.759   7.717   4.353  3.0152 -2.2682  1.6488
17907THY    HP334980   2.703   7.838   4.250  1.4018  1.0297 -1.1640
17907THY    HP434981   2.674   7.663   4.225  1.3933  1.9621 -1.4279
17907THY    CP334982   2.421   7.813   4.290 -0.4141  0.5073  0.9472
17907THY    HP534983   2.390   7.751   4.205 -0.6710  0.3755  1.2477
17907THY    HP634984   2.454   7.911   4.254  0.5451  1.1172  0.8603
17907THY    HP734985   2.328   7.819   4.348  0.9030  2.5501  2.7905
17907THY    CA334986   2.479   7.926   4.541  0.3783  0.1133 -0.1950
17907THY    HA334987   2.426   7.983   4.466 -1.0223 -0.4398 -2.1207
17907THY    CA434988   2.488   7.979   4.672  0.2341  0.7153  0.5763
17907THY    HA434989   2.457   8.082   4.685 -0.2975  0.1733  0.4933
17907THY    CA534990   2.546   7.909   4.774  0.1040  0.1253  0.0724
17907THY    CM134991   2.552   7.968   4.914 -0.3202 -0.3071  0.1699
17907THY    HM134992   2.490   7.908   4.981  1.3192 -0.4707 -1.7926
17907THY    HM234993   2.512   8.070   4.916  1.9115 -0.1752  1.1037
17907THY    HM334994   2.650   7.960   4.964 -0.8769  0.9645  0.8917
17907THY    CA634995   2.581   7.783   4.753  0.0468 -0.1112 -0.2132
17907THY    HA634996   2.635   7.733   4.833  1.2691  0.9824  2.6527
17908THY      O34997   2.774   0.731   5.866  0.1381 -0.0885  0.4069
17908THY     HO34998   2.845   0.714   5.930  0.3889 -0.4412  0.0783
17908THY    CA134999   2.684   0.626   5.869 -0.2099 -0.6842 -0.3114
17908THY    CA235000   2.662   0.549   5.748  0.3601  0.0013  0.3728
17908THY    CP135001   2.733   0.585   5.617 -0.4916  0.8715 -1.3181
17908THY    HP135002   2.813   0.655   5.646 -1.3603  2.8798 -1.1001
17908THY    CP235003   2.637   0.678   5.525  0.1105  0.1986 -0.0258
17908THY    HP235004   2.608   0.762   5.589  2.2142 -0.3088  1.1549
17908THY    HP335005   2.554   0.613   5.494  0.6960  1.2452 -1.3255
17908THY    HP435006   2.681   0.721   5.434 -0.3171 -0.2131 -0.4422
17908THY    CP335007   2.788   0.464   5.549 -0.3080 -0.3583  0.0740
17908THY    HP535008   2.827   0.476   5.448 -2.6230 -1.6373 -2.1901
17908THY    HP635009   2.710   0.395   5.515  1.5083 -0.5985 -1.9820
17908THY    HP735010   2.859   0.413   5.615 -0.2987  0.6909  1.3824
17908THY    CA335011   2.569   0.442   5.752  0.1432  0.3851  0.0640
17908THY    HA335012   2.537   0.383   5.667 -0.0409  0.7997 -0.4514
17908THY    CA435013   2.513   0.405   5.876 -0.6044 -0.5095  0.0414
17908THY    HA435014   2.443   0.323   5.886 -1.1477  1.0504  0.6504
17908THY    CA535015   2.563   0.467   5.994 -1.2864 -0.1147  0.5498
17908THY    CM135016   2.518   0.417   6.131 -0.3785 -0.6765 -0.0940
17908THY    HM135017   2.461   0.497   6.179  0.1298  2.6737 -1.5955
17908THY    HM235018   2.593   0.394   6.207  0.7642 -1.0120  2.2351
17908THY    HM335019   2.457   0.327   6.119 -2.6640  1.0799  1.1418
17908THY    CA635020   2.640   0.584   5.987 -0.5381 -0.5222 -0.7827
17908THY    HA635021   2.662   0.636   6.079 -2.4947 -1.6343  2.2300
17909THY      O35022   5.650   6.377   4.722  0.2214 -0.7226 -0.4118
17909THY     HO35023   5.662   6.393   4.817  2.1715 -1.4799  4.0727
17909THY    CA135024   5.519   6.332   4.711 -0.4147  0.5842  0.1073
17909THY    CA235025   5.473   6.254   4.603 -0.0133 -0.6052  0.0497
17909THY    CP135026   5.562   6.217   4.492 -0.1010  0.0540 -0.0951
17909THY    HP135027   5.639   6.295   4.487 -0.5215 -1.1673  0.2746
17909THY    CP235028   5.494   6.184   4.352  0.4264 -0.2452  0.7111
17909THY    HP235029   5.577   6.155   4.286  0.2690 -0.1081 -0.0521
17909THY    HP335030   5.441   6.273   4.314 -0.8743 -1.5261 -0.5654
17909THY    HP435031   5.418   6.107   4.362  0.1757  0.3108  1.0279
17909THY    CP335032   5.638   6.087   4.532 -0.4800 -0.1267 -0.1921
17909THY    HP535033   5.670   6.099   4.636  1.8526 -0.6708 -1.1331
17909THY    HP635034   5.724   6.067   4.467 -1.3149 -1.3551  0.1045
17909THY    HP735035   5.571   6.002   4.521  0.7708 -2.2808 -0.9759
17909THY    CA335036   5.337   6.206   4.614 -0.1135  0.2651 -0.2372
17909THY    HA335037   5.294   6.130   4.550  1.7931  2.3627 -3.2747
17909THY    CA435038   5.258   6.225   4.731 -0.7247  0.2633 -0.0392
17909THY    HA435039   5.165   6.172   4.748 -0.7838 -1.4775 -0.5324
17909THY    CA535040   5.304   6.317   4.829  0.1622  0.6322 -0.2973
17909THY    CM135041   5.214   6.373   4.935  0.1538  0.4116 -0.0505
17909THY    HM135042   5.108   6.349   4.921  0.0944 -0.4607  0.6904
17909THY    HM235043   5.220   6.482   4.941  0.2723 -1.2977  0.0588
17909THY    HM335044   5.250   6.341   5.034  2.4886 -0.9717 -2.0547
17909THY    CA635045   5.434   6.369   4.812 -0.1873 -0.6482 -0.3993
17909THY    HA635046   5.480   6.437   4.883 -1.1111 -1.2240  0.8567
17910THY      O35047   7.019   2.029   1.613  0.2844 -0.5626 -0.0332
17910THY     HO35048   6.947   2.014   1.549  1.0856 -0.8788 -3.3688
17910THY    CA135049   7.008   1.951   1.724  0.0813 -0.4594 -0.0001
17910THY    CA235050   7.058   1.989   1.855 -0.2969 -0.5876 -0.8724
17910THY    CP135051   7.127   2.128   1.871 -0.5391  0.9159  0.4785
17910THY    HP135052   7.136   2.175   1.772 -1.8821  0.4002 -0.3187
17910THY    CP235053   7.272   2.111   1.913 -0.4022 -0.4532  0.3915
17910THY    HP235054   7.289   2.045   1.999  1.6416 -1.9769 -1.2281
17910THY    HP335055   7.328   2.204   1.920 -0.4247  1.4035  0.3039
17910THY    HP435056   7.333   2.053   1.843  3.0197  1.1125  1.8525
17910THY    CP335057   7.041   2.217   1.955  0.0992  0.1723 -0.8616
17910THY    HP535058   7.007   2.166   2.046  0.7646  0.1483 -1.3672
17910THY    HP635059   6.949   2.237   1.900 -0.3722  1.4982  0.9631
17910THY    HP735060   7.077   2.316   1.986 -2.2306 -2.1181  0.8248
17910THY    CA335061   7.050   1.892   1.962  0.1493 -0.4140  0.3371
17910THY    HA335062   7.106   1.904   2.054  0.6039  0.0858 -3.8903
17910THY    CA435063   6.990   1.765   1.940 -0.3124 -0.1637  0.8735
17910THY    HA435064   6.976   1.689   2.016 -0.9303 -0.9674  0.1601
17910THY    CA535065   6.941   1.732   1.809  0.3255  0.2543  0.3834
17910THY    CM135066   6.877   1.593   1.793  0.1539  0.1520 -0.8038
17910THY    HM135067   6.928   1.506   1.834  1.1810 -1.7028 -1.1380
17910THY    HM235068   6.856   1.571   1.687  0.3666 -0.4597  1.5794
17910THY    HM335069   6.783   1.605   1.848  0.6848  0.5744  2.1446
17910THY    CA635070   6.945   1.828   1.709  0.3391 -0.4090 -0.9200
17910THY    HA635071   6.886   1.800   1.623 -0.7421 -0.2334  0.6473
17911THY      O35072   1.123   1.026   6.440  0.2295 -0.5033 -0.3524
17911THY     HO35073   1.188   1.096   6.458 -0.0109 -2.2880  0.3704
17911THY    CA135074   1.186   0.906   6.453 -0.0431 -0.4608 -0.3168
17911THY    CA235075   1.119   0.782   6.470 -0.1328  0.4708  1.0389
17911THY    CP135076   0.971   0.774   6.482  0.0641  0.1891  0.1022
17911THY    HP135077   0.909   0.862   6.458 -0.8132  2.1946  0.0957
17911THY    CP235078   0.918   0.718   6.619 -0.2366 -0.0210 -0.2560
17911THY    HP235079   0.946   0.612   6.622  0.4667  0.3642 -0.0630
17911THY    HP335080   0.812   0.741   6.634 -0.4433  3.1722 -2.6385
17911THY    HP435081   0.970   0.768   6.701  0.9898 -1.8579  1.6340
17911THY    CP335082   0.918   0.665   6.388 -0.4061 -0.5610 -0.1537
17911THY    HP535083   0.813   0.677   6.360 -0.7289  0.4849 -0.4343
17911THY    HP635084   0.936   0.560   6.414 -0.3431 -1.5890 -0.4059
17911THY    HP735085   0.958   0.691   6.289  1.1105 -0.4432 -1.8528
17911THY    CA335086   1.200   0.664   6.466 -0.0001  0.3947 -0.1561
17911THY    HA335087   1.157   0.565   6.482 -0.3553  1.0590  0.0987
17911THY    CA435088   1.334   0.675   6.442  0.0437  0.8602  0.4841
17911THY    HA435089   1.390   0.582   6.449  1.8465 -0.3419  1.4267
17911THY    CA535090   1.396   0.799   6.428 -0.0959 -0.2169  0.2259
17911THY    CM135091   1.543   0.816   6.409 -0.2436 -0.5228  0.0624
17911THY    HM135092   1.594   0.834   6.504 -1.1182 -0.1459  0.6087
17911THY    HM235093   1.567   0.888   6.330  1.4767  1.1886  1.4747
17911THY    HM335094   1.586   0.727   6.361  3.1001  0.9417  0.7387
17911THY    CA635095   1.321   0.915   6.434  0.5523  0.2307 -0.3341
17911THY    HA635096   1.363   1.015   6.430 -0.1783  0.0012 -0.0330
17912THY      O35097   8.060   3.146   2.457 -0.4943  0.2355  0.2897
17912THY     HO35098   8.028   3.165   2.367  0.4008 -0.4385 -1.2230
17912THY    CA135099   7.959   3.072   2.509  0.1440  0.4411 -0.2923
17912THY    CA235100   7.978   2.957   2.584 -0.6535  0.4823 -0.2351
17912THY    CP135101   8.116   2.903   2.607 -0.8015  0.5298 -0.4542
17912THY    HP135102   8.189   2.937   2.532 -0.3308  1.2237  0.0947
17912THY    CP235103   8.123   2.751   2.587 -0.1639  0.3741  0.0530
17912THY    HP235104   8.067   2.689   2.659 -1.8638 -0.3104  0.7382
17912THY    HP335105   8.226   2.713   2.582 -0.2521  2.3525 -0.5539
17912THY    HP435106   8.064   2.731   2.497  0.1026  0.1781  0.1327
17912THY    CP335107   8.160   2.929   2.751  0.7087 -0.1364 -0.2638
17912THY    HP535108   8.148   3.036   2.772  2.0967 -3.1419  0.5867
17912THY    HP635109   8.262   2.898   2.777 -0.0002  1.3233 -1.5338
17912THY    HP735110   8.100   2.874   2.824  1.2170  1.2386  0.9332
17912THY    CA335111   7.863   2.898   2.634  0.0405 -0.1009  0.4789
17912THY    HA335112   7.870   2.818   2.708  0.7702  1.8125  2.2342
17912THY    CA435113   7.737   2.939   2.602  0.1827  0.2491 -0.3751
17912THY    HA435114   7.653   2.890   2.650  0.7263  0.0129 -1.6054
17912THY    CA535115   7.722   3.048   2.513 -0.4742  0.1389  0.3097
17912THY    CM135116   7.581   3.095   2.472 -0.2109 -0.0145  0.3586
17912THY    HM135117   7.512   3.017   2.507  0.4846  0.3280 -0.1139
17912THY    HM235118   7.561   3.097   2.364  0.2307 -0.0962  1.8171
17912THY    HM335119   7.555   3.195   2.508 -1.3088 -3.4234  1.4415
17912THY    CA635120   7.833   3.116   2.468  0.1113  0.3703 -0.4703
17912THY    HA635121   7.822   3.199   2.398  0.0436  0.1042 -0.7026
17913THY      O35122   4.623   8.910   2.967  0.1304 -0.4109 -0.2661
17913THY     HO35123   4.617   8.955   3.053 -0.5124 -0.3011 -0.5381
17913THY    CA135124   4.742   8.947   2.916  0.0530  0.2275 -0.3769
17913THY    CA235125   4.753   8.983   2.779  0.3098 -0.4519  0.4675
17913THY    CP135126   4.634   8.967   2.685 -0.1032 -0.1616  0.0374
17913THY    HP135127   4.537   8.960   2.736 -0.1183  0.0710  1.5581
17913THY    CP235128   4.657   8.857   2.582 -0.2345 -0.4646  0.5095
17913THY    HP235129   4.610   8.764   2.617  0.3657  2.6486  1.2478
17913THY    HP335130   4.764   8.841   2.566 -0.1169 -0.5050  1.3174
17913THY    HP435131   4.602   8.881   2.490 -0.8144 -0.1544  0.4099
17913THY    CP335132   4.621   9.101   2.617  0.0515 -0.1307 -0.7102
17913THY    HP535133   4.520   9.103   2.574  0.4504 -1.0510  0.0212
17913THY    HP635134   4.697   9.123   2.542 -0.5743  0.2027  3.5374
17913THY    HP735135   4.622   9.181   2.692 -0.7807 -1.3049  0.4517
17913THY    CA335136   4.880   9.020   2.729  0.3498 -0.1728 -0.3542
17913THY    HA335137   4.892   9.041   2.623  0.1849 -0.4952 -1.7589
17913THY    CA435138   4.990   9.022   2.816  0.1436 -0.0173 -0.6836
17913THY    HA435139   5.081   9.063   2.774 -0.5248  0.2195  1.1351
17913THY    CA535140   4.975   8.976   2.948  0.2499 -0.5659  0.6862
17913THY    CM135141   5.099   8.968   3.036 -0.3612 -0.3329  0.6736
17913THY    HM135142   5.103   9.064   3.087  1.2493 -0.2319  0.5753
17913THY    HM235143   5.186   8.963   2.970 -0.1820 -0.2300  2.1213
17913THY    HM335144   5.088   8.888   3.111 -1.1982 -0.5211  0.5952
17913THY    CA635145   4.852   8.938   3.002 -0.0289  0.7278 -0.6698
17913THY    HA635146   4.845   8.902   3.105 -0.6173  0.2077 -2.1391
17914THY      O35147   2.886   2.299   2.360  0.0098 -0.3225 -0.8166
17914THY     HO35148   2.952   2.365   2.390 -0.7953  0.8467 -0.5173
17914THY    CA135149   2.807   2.372   2.284  0.6876  0.2143 -0.5092
17914THY    CA235150   2.788   2.349   2.145  0.0038  0.4675  0.0373
17914THY    CP135151   2.850   2.227   2.079 -0.2012 -0.6201  0.4182
17914THY    HP135152   2.893   2.158   2.153 -1.7546  0.3900  0.4822
17914THY    CP235153   2.929   2.262   1.958 -0.0674 -0.4229  0.0588
17914THY    HP235154   2.866   2.318   1.888 -0.3648 -0.5057 -0.3762
17914THY    HP335155   2.963   2.165   1.920  0.7868  1.9289 -0.6286
17914THY    HP435156   3.018   2.320   1.982 -0.6197  2.7747 -0.2132
17914THY    CP335157   2.736   2.135   2.031 -0.8653  0.2793 -0.2475
17914THY    HP535158   2.658   2.103   2.102 -2.4623 -0.6581  1.4009
17914THY    HP635159   2.773   2.038   1.994 -0.5412  0.3613 -0.1551
17914THY    HP735160   2.670   2.179   1.955 -0.7084 -1.3809 -2.6649
17914THY    CA335161   2.705   2.438   2.080  0.7034  0.3574  0.0767
17914THY    HA335162   2.693   2.418   1.974  1.2236  0.1539  0.7687
17914THY    CA435163   2.647   2.546   2.147 -0.6411  0.0799  0.3464
17914THY    HA435164   2.575   2.606   2.092 -1.0882  0.8633  0.5553
17914THY    CA535165   2.661   2.556   2.279 -0.2921 -0.5600 -0.2493
17914THY    CM135166   2.601   2.675   2.347 -0.1407  0.2344 -0.0212
17914THY    HM135167   2.492   2.688   2.343  0.1469 -1.9709  2.4396
17914THY    HM235168   2.642   2.768   2.306 -0.6677  1.8446  0.9452
17914THY    HM335169   2.610   2.676   2.456 -0.7054  0.2816  0.5665
17914THY    CA635170   2.744   2.468   2.352 -0.0947  0.7496 -0.1423
17914THY    HA635171   2.766   2.485   2.457 -0.0447  1.2212 -2.7534
17915THY      O35172   3.153   1.914   6.585 -0.4725  0.2362 -0.0122
17915THY     HO35173   3.087   1.955   6.526 -0.9229 -0.0622 -1.1479
17915THY    CA135174   3.104   1.932   6.710 -0.4023  0.0031  0.1026
17915THY    CA235175   3.172   1.876   6.822  0.1197 -0.3170 -0.1797
17915THY    CP135176   3.297   1.786   6.805  0.0340  0.9399 -0.4122
17915THY    HP135177   3.342   1.797   6.706 -2.6300 -0.4110 -0.9472
17915THY    CP235178   3.266   1.637   6.812 -0.3192 -0.2755  0.2535
17915THY    HP235179   3.199   1.597   6.736  0.1340 -0.8116  0.5041
17915THY    HP335180   3.223   1.598   6.905 -1.0073 -0.6761  0.0403
17915THY    HP435181   3.363   1.589   6.796  1.6239  2.0920  2.9970
17915THY    CP335182   3.410   1.816   6.910  0.2371 -0.4572  0.6121
17915THY    HP535183   3.389   1.766   7.005  1.5953  0.1079  1.0618
17915THY    HP635184   3.411   1.924   6.928 -0.7058 -3.7527  1.2843
17915THY    HP735185   3.503   1.775   6.870  0.5521 -0.2744  1.1386
17915THY    CA335186   3.124   1.907   6.948  0.6768  0.0459  0.1581
17915THY    HA335187   3.162   1.856   7.036  0.3599  0.5766  0.8222
17915THY    CA435188   3.015   2.000   6.963 -0.8237 -0.3601  0.5803
17915THY    HA435189   2.994   2.024   7.067  3.8775  0.9254  0.0811
17915THY    CA535190   2.955   2.052   6.849  0.0327  0.2632  0.4377
17915THY    CM135191   2.841   2.139   6.872  1.0295  0.0760 -0.0810
17915THY    HM135192   2.829   2.182   6.972  0.9655  0.6254 -1.3369
17915THY    HM235193   2.750   2.085   6.845  0.9937 -0.6459  0.3192
17915THY    HM335194   2.844   2.226   6.805  2.0481  1.0037  0.6355
17915THY    CA635195   2.993   2.017   6.718  0.5325  0.1168  0.2943
17915THY    HA635196   2.949   2.066   6.632  1.5425 -0.2275  0.6196
17916THY      O35197   3.205   4.227   2.489 -0.0564  0.1665 -0.4751
17916THY     HO35198   3.162   4.227   2.576  1.2271  0.8300  0.0702
17916THY    CA135199   3.199   4.359   2.446 -0.3120 -0.5319 -0.2637
17916THY    CA235200   3.258   4.408   2.325  0.4399 -0.0620  0.4672
17916THY    CP135201   3.319   4.305   2.228 -0.0913  0.1799  0.4226
17916THY    HP135202   3.337   4.208   2.275  1.5874 -1.0179  0.1144
17916THY    CP235203   3.460   4.361   2.183 -0.3730 -0.1729 -0.1308
17916THY    HP235204   3.521   4.382   2.272 -0.3268 -0.7684  2.5622
17916THY    HP335205   3.451   4.456   2.130  0.8251 -1.1243 -0.5195
17916THY    HP435206   3.511   4.284   2.123  0.3117  1.9910 -1.4795
17916THY    CP335207   3.228   4.291   2.094 -0.5817 -0.3590 -0.0081
17916THY    HP535208   3.245   4.389   2.048  0.0679 -0.4489 -0.1604
17916THY    HP635209   3.122   4.274   2.116 -0.8605 -1.9732 -0.4958
17916THY    HP735210   3.270   4.213   2.030  1.4192  1.9857 -0.9951
17916THY    CA335211   3.232   4.540   2.283 -0.1108 -0.2934 -0.0701
17916THY    HA335212   3.265   4.566   2.183 -1.5888 -0.5319  1.0210
17916THY    CA435213   3.140   4.617   2.353  0.5799  0.7664 -0.1435
17916THY    HA435214   3.110   4.715   2.317  1.3401  0.0058 -0.1719
17916THY    CA535215   3.083   4.567   2.469  0.2813  0.0685  0.6056
17916THY    CM135216   2.987   4.655   2.539 -0.4480 -0.4271  0.1060
17916THY    HM135217   2.938   4.617   2.630 -2.0046 -1.2077  0.1227
17916THY    HM235218   2.897   4.671   2.477 -0.7446  0.2124  1.0104
17916THY    HM335219   3.034   4.751   2.559 -1.0149 -0.6398  0.4348
17916THY    CA635220   3.112   4.439   2.519 -0.1454  0.1007  0.1416
17916THY    HA635221   3.065   4.402   2.610  0.1027 -0.5330 -1.8464
17917THY      O35222   0.959   8.343   4.594 -0.3439 -0.2055  0.0575
17917THY     HO35223   0.975   8.309   4.504  2.0537 -0.2244  1.0740
17917THY    CA135224   0.914   8.470   4.577  0.1295  0.2811 -0.0440
17917THY    CA235225   0.794   8.514   4.639  0.0506 -0.2891  0.2338
17917THY    CP135226   0.721   8.410   4.728 -0.2244 -0.0064 -0.7526
17917THY    HP135227   0.764   8.309   4.734 -1.4989  0.0052 -1.3227
17917THY    CP235228   0.572   8.383   4.676  0.6334 -0.0969 -0.6331
17917THY    HP235229   0.511   8.336   4.754 -1.3854 -2.2113 -1.7746
17917THY    HP335230   0.591   8.316   4.590 -1.3029  0.5935 -2.1511
17917THY    HP435231   0.523   8.471   4.632 -0.2828  1.7937 -0.1670
17917THY    CP335232   0.711   8.472   4.863  1.0575  0.6481 -0.7277
17917THY    HP535233   0.665   8.572   4.860  1.2864  2.1669 -0.5578
17917THY    HP635234   0.808   8.473   4.915  2.5613 -1.9136 -1.7943
17917THY    HP735235   0.649   8.402   4.920 -1.0665 -0.5876  0.0585
17917THY    CA335236   0.750   8.645   4.623  0.0763 -0.7252  0.1368
17917THY    HA335237   0.656   8.680   4.664 -0.2800 -2.7074  1.7534
17917THY    CA435238   0.828   8.723   4.531 -0.4584 -0.4527 -0.2115
17917THY    HA435239   0.805   8.825   4.501  1.8255 -1.6267  0.0366
17917THY    CA535240   0.940   8.685   4.460 -0.1084 -0.0697  0.6786
17917THY    CM135241   1.010   8.762   4.348 -0.2671 -0.2292  0.2451
17917THY    HM135242   0.971   8.865   4.345 -1.4461 -0.0735 -0.1737
17917THY    HM235243   0.991   8.723   4.248  1.4569  0.0141 -1.3271
17917THY    HM335244   1.118   8.747   4.357 -0.5215 -0.2139 -1.9096
17917THY    CA635245   0.987   8.554   4.484 -0.1114 -0.3168  0.1438
17917THY    HA635246   1.068   8.516   4.423  0.0784  0.7551 -1.2781
17918THY      O35247   7.793   7.098   1.753  0.0826 -0.0596 -0.4130
17918THY     HO35248   7.755   7.122   1.668  0.7576 -0.2605 -0.0387
17918THY    CA135249   7.699   7.110   1.845 -0.0213  0.9403  0.0578
17918THY    CA235250   7.724   7.086   1.981 -0.3672  0.2037  0.1914
17918THY    CP135251   7.866   7.080   2.044  0.1330 -0.9804 -0.5255
17918THY    HP135252   7.940   7.056   1.968  1.8387  0.7252 -0.8628
17918THY    CP235253   7.880   6.967   2.145  0.1660  0.2565  0.1530
17918THY    HP235254   7.841   6.875   2.101 -0.6007 -0.2452  0.7018
17918THY    HP335255   7.831   6.982   2.242  2.2239  1.3768 -0.0743
17918THY    HP435256   7.986   6.946   2.162 -0.0091  0.3418 -0.6593
17918THY    CP335257   7.910   7.211   2.109  0.3400  0.5496  0.0887
17918THY    HP535258   7.844   7.235   2.194  1.7085  2.2013 -1.6748
17918THY    HP635259   7.905   7.292   2.035 -2.8631  0.3657 -0.1229
17918THY    HP735260   8.013   7.209   2.146  0.0217  1.5441  0.9761
17918THY    CA335261   7.616   7.105   2.070 -0.2544  0.1476  0.3868
17918THY    HA335262   7.633   7.112   2.177 -1.9478  0.5237 -0.7561
17918THY    CA435263   7.485   7.124   2.018 -0.0440 -0.1503 -0.0128
17918THY    HA435264   7.401   7.134   2.087  0.8358  0.9153  0.2854
17918THY    CA535265   7.467   7.127   1.883  0.4351 -0.7922 -0.0647
17918THY    CM135266   7.323   7.125   1.830  0.1531  0.0490 -0.6847
17918THY    HM135267   7.265   7.040   1.866 -0.0321 -0.6581 -0.8586
17918THY    HM235268   7.324   7.141   1.722 -2.3354  0.0970  0.2257
17918THY    HM335269   7.277   7.216   1.870 -1.8855  0.3681 -1.7951
17918THY    CA635270   7.569   7.116   1.796  0.6999  0.1510 -0.4743
17918THY    HA635271   7.553   7.107   1.689 -0.9959  0.4877 -2.0532
17919THY      O35272   0.526   5.907   2.270 -0.6088  0.6999 -1.0090
17919THY     HO35273   0.599   5.959   2.232 -3.1181 -1.6872  1.0871
17919THY    CA135274   0.430   5.991   2.230  0.4157 -0.5140  0.5084
17919THY    CA235275   0.296   5.949   2.198  0.1134 -0.1998 -0.7831
17919THY    CP135276   0.260   5.806   2.220  0.1859  0.0218  0.1939
17919THY    HP135277   0.338   5.740   2.179 -0.0360  0.1342 -0.1428
17919THY    CP235278   0.136   5.762   2.143 -0.1519  0.0074  0.9008
17919THY    HP235279   0.052   5.820   2.184 -1.3805 -2.2386  0.8438
17919THY    HP335280   0.112   5.656   2.145  2.4038 -1.3090  0.2213
17919THY    HP435281   0.149   5.796   2.040 -1.4403 -0.3431  0.4134
17919THY    CP335282   0.235   5.783   2.373 -0.3839 -0.3069  0.0639
17919THY    HP535283   0.201   5.682   2.398  1.5243  0.8266 -0.3605
17919THY    HP635284   0.177   5.867   2.414  0.8633  1.4385  0.1255
17919THY    HP735285   0.326   5.802   2.431  0.8783 -1.3232 -2.4736
17919THY    CA335286   0.211   6.038   2.136 -0.8109 -0.3562  0.9240
17919THY    HA335287   0.110   6.004   2.114 -0.3941 -0.0005 -0.5994
17919THY    CA435288   0.249   6.172   2.107 -0.8570 -0.3658 -0.1601
17919THY    HA435289   0.180   6.242   2.062 -0.0850 -0.9905  0.2157
17919THY    CA535290   0.378   6.211   2.151  0.2125  0.5475 -0.0189
17919THY    CM135291   0.418   6.352   2.141  0.6762 -0.0172 -0.4035
17919THY    HM135292   0.469   6.382   2.050 -0.1323  0.1442  1.6019
17919THY    HM235293   0.482   6.374   2.227  0.6921 -0.3090  0.7499
17919THY    HM335294   0.327   6.413   2.155  1.6736 -0.7917  1.3111
17919THY    CA635295   0.472   6.123   2.213  0.2359 -0.3301 -0.1036
17919THY    HA635296   0.565   6.157   2.258 -0.6147  2.7761 -1.5010
17920THY      O35297   7.329   8.784   5.993  0.1964 -0.2249 -0.0041
17920THY     HO35298   7.392   8.843   5.946 -0.4775 -0.1244  0.8087
17920THY    CA135299   7.215   8.782   5.918  0.6340  0.4141 -0.4450
17920THY    CA235300   7.088   8.847   5.947 -0.1299  0.3672  0.3653
17920THY    CP135301   7.073   8.923   6.077 -0.1831  0.2865  0.0861
17920THY    HP135302   7.164   8.933   6.136  0.9069 -1.2807 -0.3286
17920THY    CP235303   6.967   8.851   6.167 -0.4121  0.0284 -0.2538
17920THY    HP235304   7.005   8.753   6.195  0.4407  1.4893  0.4607
17920THY    HP335305   6.874   8.839   6.111 -0.5351  0.5310 -1.8564
17920THY    HP435306   6.942   8.908   6.257 -0.0326 -0.1817  0.2521
17920THY    CP335307   7.025   9.075   6.059 -0.2090  0.0018 -0.2827
17920THY    HP535308   6.917   9.071   6.039 -0.1495 -0.2224 -3.6120
17920THY    HP635309   7.081   9.128   5.982 -2.2342  0.0111  2.0419
17920THY    HP735310   7.036   9.130   6.153 -1.2772  0.8943 -1.4863
17920THY    CA335311   6.982   8.833   5.867  0.4284 -0.5647  0.5204
17920THY    HA335312   6.886   8.877   5.895 -1.3147  1.6804 -4.0357
17920THY    CA435313   6.994   8.757   5.752 -0.7672  0.1914  0.6342
17920THY    HA435314   6.909   8.751   5.685 -1.4691  1.2107 -2.5633
17920THY    CA535315   7.113   8.689   5.721 -0.2949  0.2455  0.4325
17920THY    CM135316   7.116   8.613   5.590  0.3552  0.1935  0.0496
17920THY    HM135317   7.014   8.600   5.554  1.5667 -2.9164 -2.2680
17920THY    HM235318   7.166   8.516   5.597 -0.4562  0.8800 -0.3249
17920THY    HM335319   7.167   8.683   5.522  1.4513  1.1696  0.2290
17920THY    CA635320   7.225   8.695   5.811 -0.8678  0.4701  0.3983
17920THY    HA635321   7.315   8.641   5.783 -1.2591 -1.4559  0.6658
17921THY      O35322   3.708   6.607   4.537  0.1057 -0.1311 -0.4116
17921THY     HO35323   3.689   6.642   4.448 -1.5251  0.8588  1.4800
17921THY    CA135324   3.590   6.556   4.577  0.1340  0.2029  1.1737
17921THY    CA235325   3.581   6.434   4.648 -0.2885 -0.5692 -0.4961
17921THY    CP135326   3.709   6.351   4.683  0.2089 -0.0275  0.1088
17921THY    HP135327   3.791   6.424   4.681 -0.6401 -2.0238  1.0721
17921THY    CP235328   3.747   6.251   4.573 -0.3259  0.1691  0.5011
17921THY    HP235329   3.838   6.196   4.601  0.3851 -0.0434  1.5373
17921THY    HP335330   3.758   6.303   4.477 -1.7055  0.5445  1.5275
17921THY    HP435331   3.664   6.183   4.551 -1.0286 -0.6110  1.5927
17921THY    CP335332   3.692   6.287   4.824 -0.5201 -0.3089 -0.2610
17921THY    HP535333   3.624   6.351   4.881 -0.7653 -0.4042 -0.4369
17921THY    HP635334   3.786   6.295   4.879 -1.5247  1.3464  0.7475
17921THY    HP735335   3.647   6.187   4.827 -0.0880  4.6394 -0.5836
17921THY    CA335336   3.447   6.385   4.674  0.4645  0.4611 -0.3982
17921THY    HA335337   3.437   6.302   4.744 -0.2570  1.7191  0.7037
17921THY    CA435338   3.335   6.459   4.629  0.4073  0.2696 -1.1124
17921THY    HA435339   3.231   6.428   4.637 -0.2203 -2.4917  0.0051
17921THY    CA535340   3.345   6.592   4.577  0.0688  0.2164 -0.1205
17921THY    CM135341   3.224   6.671   4.537 -0.2311 -0.1304  0.2043
17921THY    HM135342   3.245   6.778   4.526  1.7505 -1.2635 -0.2486
17921THY    HM235343   3.151   6.653   4.617 -1.1464 -1.3947 -2.0874
17921THY    HM335344   3.171   6.631   4.450 -0.1022  0.6617 -1.8145
17921THY    CA635345   3.475   6.633   4.554  0.5765  0.9023  0.0807
17921THY    HA635346   3.490   6.726   4.499 -0.4829 -0.6095 -0.6003
17922THY      O35347   6.071   8.871   5.036 -0.0862 -0.0391  0.6197
17922THY     HO35348   6.011   8.796   5.049 -0.5134 -0.6616  0.8421
17922THY    CA135349   6.157   8.839   4.939 -0.8630  0.4061  0.0548
17922THY    CA235350   6.267   8.923   4.893 -0.6580  0.3283  0.5361
17922THY    CP135351   6.266   9.067   4.949  0.1084  0.1236  0.4157
17922THY    HP135352   6.179   9.084   5.014  1.3410  1.7102  0.9094
17922THY    CP235353   6.274   9.177   4.845  0.0234 -1.1716  0.5146
17922THY    HP235354   6.176   9.196   4.799 -0.9377  1.4149  2.4940
17922THY    HP335355   6.357   9.158   4.775  0.1059 -1.0249  0.3400
17922THY    HP435356   6.298   9.268   4.901 -1.9751 -0.2303  0.5085
17922THY    CP335357   6.380   9.075   5.045  0.4966 -0.4257 -0.5459
17922THY    HP535358   6.373   9.002   5.127 -3.2458 -0.0609  0.0090
17922THY    HP635359   6.378   9.172   5.096  0.1377 -1.4971  0.0221
17922THY    HP735360   6.480   9.071   5.001  1.8040  2.3009 -0.4498
17922THY    CA335361   6.352   8.882   4.791 -0.1808  0.3758  1.0805
17922THY    HA335362   6.430   8.946   4.753  0.0049  0.0665  0.6696
17922THY    CA435363   6.343   8.749   4.747 -0.0629 -0.2254  0.7544
17922THY    HA435364   6.421   8.713   4.680 -0.9869 -0.6968 -0.4233
17922THY    CA535365   6.243   8.663   4.785 -0.4549 -0.1462 -0.2239
17922THY    CM135366   6.233   8.526   4.717  0.5416 -0.0189 -0.5246
17922THY    HM135367   6.132   8.495   4.689  0.0801  0.4472  0.5312
17922THY    HM235368   6.284   8.449   4.776  0.4553 -0.8380 -1.2239
17922THY    HM335369   6.289   8.525   4.622  0.6677  0.0555 -0.5436
17922THY    CA635370   6.154   8.709   4.880 -0.2906  0.1747  0.6561
17922THY    HA635371   6.062   8.654   4.897 -1.6948 -1.8702  2.2341
17923THY      O35372   2.487   1.470   6.934  0.2219 -0.7236 -0.0525
17923THY     HO35373   2.522   1.380   6.933 -0.9037 -1.6010 -0.5152
17923THY    CA135374   2.389   1.450   6.844  0.2091  0.6303 -0.1137
17923THY    CA235375   2.277   1.533   6.842  0.1383 -0.7178 -1.6967
17923THY    CP135376   2.263   1.659   6.934 -0.3562  0.2933  0.2795
17923THY    HP135377   2.357   1.678   6.987  1.2173 -1.6421 -1.6607
17923THY    CP235378   2.140   1.638   7.033 -0.0311 -0.0009  0.6322
17923THY    HP235379   2.160   1.556   7.103 -0.2766 -1.3748 -0.6445
17923THY    HP335380   2.043   1.618   6.987  0.6279 -0.9336 -0.5337
17923THY    HP435381   2.119   1.732   7.087  1.1166 -0.8177  1.3935
17923THY    CP335382   2.244   1.788   6.849 -0.1742 -0.3876 -0.5015
17923THY    HP535383   2.164   1.790   6.775 -3.0302  2.5128  0.2589
17923THY    HP635384   2.342   1.812   6.806 -0.8740 -1.5755  0.2688
17923THY    HP735385   2.212   1.869   6.915 -0.2109 -0.6567 -0.2985
17923THY    CA335386   2.176   1.508   6.749 -0.0904  0.0801  0.4227
17923THY    HA335387   2.087   1.571   6.747 -0.1576 -1.3027  0.3191
17923THY    CA435388   2.195   1.409   6.648  0.5877  0.1476  0.8493
17923THY    HA435389   2.114   1.384   6.581 -0.1209  1.2869  0.0203
17923THY    CA535390   2.301   1.319   6.659 -0.3219  0.4580  0.3620
17923THY    CM135391   2.307   1.192   6.568  0.2106 -0.2010 -0.0789
17923THY    HM135392   2.403   1.138   6.572 -0.3569 -0.4156 -1.1220
17923THY    HM235393   2.295   1.220   6.463 -1.5272 -0.5303 -1.8268
17923THY    HM335394   2.225   1.121   6.585 -0.4346 -0.4687  0.5918
17923THY    CA635395   2.400   1.342   6.757  0.1849  0.1448  0.2182
17923THY    HA635396   2.490   1.281   6.753  0.6855  0.8181  0.8856
17924THY      O35397   6.359   3.193   7.052 -0.3216 -0.1942 -0.5778
17924THY     HO35398   6.333   3.262   6.988  1.4861 -0.0171  0.3132
17924THY    CA135399   6.445   3.252   7.128  0.3231 -0.7100 -0.6682
17924THY    CA235400   6.525   3.180   7.211 -0.0798  0.0678  0.1772
17924THY    CP135401   6.490   3.023   7.235  0.2503 -0.5516  0.4916
17924THY    HP135402   6.430   2.976   7.157  3.0827 -2.2647 -0.5290
17924THY    CP235403   6.398   3.009   7.359 -0.1101  0.7773 -0.1092
17924THY    HP235404   6.456   3.027   7.450  1.5025 -0.1567 -0.4123
17924THY    HP335405   6.358   2.907   7.355 -1.1602 -0.7714  0.3245
17924THY    HP435406   6.315   3.081   7.361 -1.3904 -1.6906 -1.3943
17924THY    CP335407   6.615   2.941   7.253 -0.1367  0.1884  0.7989
17924THY    HP535408   6.637   2.947   7.360 -0.8426  0.2798  2.1147
17924THY    HP635409   6.699   2.976   7.191 -0.8198 -1.2631 -0.0444
17924THY    HP735410   6.592   2.838   7.225 -0.8116 -0.7133  1.1805
17924THY    CA335411   6.626   3.245   7.286  0.7323 -0.4680 -0.5418
17924THY    HA335412   6.686   3.191   7.359 -0.1236  1.1993  0.6889
17924THY    CA435413   6.642   3.382   7.278  0.1320  0.2339 -0.1504
17924THY    HA435414   6.725   3.429   7.330  1.8987 -2.2006 -0.3849
17924THY    CA535415   6.569   3.456   7.181 -0.6417  0.2808  0.0993
17924THY    CM135416   6.613   3.592   7.161 -0.1774 -0.5604 -0.1809
17924THY    HM135417   6.630   3.601   7.053  0.8836 -0.7733 -3.4437
17924THY    HM235418   6.706   3.624   7.208  0.1421 -1.1215 -0.2849
17924THY    HM335419   6.528   3.655   7.190  0.4887 -1.4828  1.1847
17924THY    CA635420   6.471   3.390   7.107  0.4121 -0.2387 -0.9577
17924THY    HA635421   6.420   3.431   7.020 -0.1375 -0.8140 -2.7622
17925THY      O35422   1.374   4.387   6.293 -0.0776 -0.5408  0.1636
17925THY     HO35423   1.398   4.315   6.232 -1.6827 -1.8661  0.6663
17925THY    CA135424   1.477   4.416   6.374  1.0744  0.4008 -0.1525
17925THY    CA235425   1.479   4.526   6.461 -0.3177  0.2818  0.1875
17925THY    CP135426   1.368   4.628   6.469  0.7990 -0.2806  0.2813
17925THY    HP135427   1.295   4.611   6.388 -1.3700  1.7011 -0.3345
17925THY    CP235428   1.406   4.777   6.457 -0.9386 -0.0073  0.0335
17925THY    HP235429   1.478   4.793   6.376  0.9956  1.7495  0.6321
17925THY    HP335430   1.454   4.814   6.548 -0.5616 -0.2146  0.0627
17925THY    HP435431   1.315   4.837   6.445 -0.4455 -0.1105  0.7682
17925THY    CP335432   1.283   4.606   6.595 -0.2448  0.4721 -0.3658
17925THY    HP535433   1.264   4.501   6.618 -1.4496  0.2089 -0.2216
17925THY    HP635434   1.187   4.658   6.603 -0.0380 -0.4222  0.1723
17925THY    HP735435   1.343   4.648   6.676 -0.3514  0.5608 -0.3843
17925THY    CA335436   1.592   4.535   6.553 -0.2786  0.2875 -0.3572
17925THY    HA335437   1.611   4.617   6.622  2.5202 -1.7287  0.8952
17925THY    CA435438   1.687   4.434   6.553 -0.4034 -0.1865 -0.0449
17925THY    HA435439   1.770   4.446   6.623  0.4899 -0.8204 -2.1671
17925THY    CA535440   1.683   4.330   6.467  0.8062  0.2870 -0.5698
17925THY    CM135441   1.790   4.220   6.470  0.0577  0.3579  0.1368
17925THY    HM135442   1.746   4.120   6.469  1.8005  0.5271 -0.6569
17925THY    HM235443   1.844   4.221   6.565 -0.0808  0.4670 -1.1330
17925THY    HM335444   1.865   4.222   6.390 -0.1227  0.1873  1.7865
17925THY    CA635445   1.579   4.321   6.379 -0.6108 -0.3100  0.2458
17925THY    HA635446   1.585   4.233   6.316  0.5674  0.2885 -0.1169
17926THY      O35447   8.663   8.476   6.985  0.4815 -0.0434 -0.1771
17926THY     HO35448   8.755   8.502   6.970  0.0911 -0.1319  1.2157
17926THY    CA135449   8.579   8.579   6.962  0.0441 -0.2297  1.1358
17926THY    CA235450   8.447   8.552   6.921  0.1413  0.3052 -0.4497
17926THY    CP135451   8.392   8.403   6.912 -0.7219 -0.1869  1.1945
17926THY    HP135452   8.424   8.340   6.996 -2.8164 -1.1348 -1.3204
17926THY    CP235453   8.435   8.327   6.787 -0.0075  0.3010 -0.2765
17926THY    HP235454   8.379   8.235   6.768 -0.0262 -1.2794  0.0274
17926THY    HP335455   8.543   8.314   6.794 -0.3125  1.0219 -3.0175
17926THY    HP435456   8.420   8.385   6.695 -0.8419  1.2582  1.0798
17926THY    CP335457   8.237   8.396   6.914  0.0413  0.0800 -0.1747
17926THY    HP535458   8.211   8.290   6.918  0.5410  0.3668 -0.2919
17926THY    HP635459   8.191   8.441   6.826 -1.0433  1.7972  2.3607
17926THY    HP735460   8.203   8.448   7.005 -1.6301 -0.2286 -0.6895
17926THY    CA335461   8.361   8.669   6.900 -0.1119 -0.3583 -0.6287
17926THY    HA335462   8.254   8.660   6.882 -0.7399  2.2871  0.6220
17926THY    CA435463   8.412   8.794   6.913 -0.3942  0.0740  0.4170
17926THY    HA435464   8.337   8.871   6.898 -0.2105 -0.6728  0.4601
17926THY    CA535465   8.544   8.817   6.950  0.9828  0.2615 -0.1882
17926THY    CM135466   8.592   8.964   6.959 -0.1203 -0.4612  0.2855
17926THY    HM135467   8.584   9.012   6.861  0.8013 -1.6550 -1.8260
17926THY    HM235468   8.700   8.962   6.980 -0.3275  0.5787 -0.4115
17926THY    HM335469   8.548   9.032   7.032  2.7515  0.1842  1.5981
17926THY    CA635470   8.626   8.705   6.973 -0.1005 -0.0800  0.6616
17926THY    HA635471   8.731   8.715   6.999 -0.0477 -0.3974  0.9262
17927THY      O35472   9.230   3.987   6.632  0.0158 -0.4488 -0.2976
17927THY     HO35473   9.213   3.902   6.674 -0.0866 -0.1586 -0.1341
17927THY    CA135474   9.173   4.070   6.716  0.9260  0.0526 -0.5321
17927THY    CA235475   9.084   4.169   6.671  0.4478  0.0873 -0.1952
17927THY    CP135476   9.040   4.175   6.526  0.2863 -0.1134  1.3902
17927THY    HP135477   9.046   4.072   6.490  1.1115  0.7081  1.1377
17927THY    CP235478   9.143   4.258   6.454 -0.0973  0.1106 -0.8732
17927THY    HP235479   9.127   4.256   6.345  0.5049 -0.0585  1.0508
17927THY    HP335480   9.244   4.221   6.475  0.6816 -0.8459  0.5944
17927THY    HP435481   9.141   4.357   6.502 -2.3766 -2.3555  0.4235
17927THY    CP335482   8.903   4.232   6.496  0.0202  0.4069  0.2720
17927THY    HP535483   8.913   4.338   6.522 -1.0941  1.5263  0.1366
17927THY    HP635484   8.833   4.196   6.573  1.4630  0.5760 -2.3911
17927THY    HP735485   8.873   4.204   6.394 -0.0703 -0.2307  2.5245
17927THY    CA335486   9.035   4.263   6.765  0.1279  0.5049  0.4582
17927THY    HA335487   8.963   4.339   6.736  0.9221  0.2677  1.1383
17927THY    CA435488   9.066   4.241   6.903 -0.2574  0.3182 -0.1837
17927THY    HA435489   9.017   4.304   6.977 -2.0079 -0.8926 -0.0585
17927THY    CA535490   9.162   4.141   6.943  0.7757  0.1033 -0.6236
17927THY    CM135491   9.211   4.141   7.084  0.0330  0.9120 -0.3891
17927THY    HM135492   9.134   4.175   7.154  1.8727  1.5470  2.8681
17927THY    HM235493   9.289   4.217   7.090 -0.2391 -0.3106  0.0151
17927THY    HM335494   9.245   4.038   7.101 -0.4288 -0.0875 -0.7193
17927THY    CA635495   9.202   4.045   6.852  0.5070 -0.5738 -0.0362
17927THY    HA635496   9.265   3.962   6.882 -0.3873  2.3511  0.2138
17928THY      O35497   8.646   9.268   5.027 -0.4134  0.9617  0.2962
17928THY     HO35498   8.690   9.252   5.112  0.1886  0.8123  1.0986
17928THY    CA135499   8.737   9.268   4.933  0.4509 -0.3983  0.3306
17928THY    CA235500   8.717   9.221   4.804 -0.1809  0.0492 -0.0348
17928THY    CP135501   8.576   9.168   4.767  0.2922  0.0062 -0.3899
17928THY    HP135502   8.526   9.130   4.856  1.0586  0.6482  0.0809
17928THY    CP235503   8.579   9.048   4.671  0.2249 -0.0040 -0.0564
17928THY    HP235504   8.655   8.974   4.697 -1.5557 -1.5030 -2.5263
17928THY    HP335505   8.589   9.073   4.565  4.9577  0.3871  0.5360
17928THY    HP435506   8.485   8.992   4.677  0.7140  0.5266 -0.8339
17928THY    CP335507   8.477   9.275   4.716 -0.5379  0.3613  0.1825
17928THY    HP535508   8.462   9.332   4.809  0.1154  0.3711  0.3517
17928THY    HP635509   8.379   9.236   4.688 -1.1591  1.4071  0.9307
17928THY    HP735510   8.529   9.335   4.640  0.9537  1.4553  0.3480
17928THY    CA335511   8.827   9.240   4.712 -0.3743  0.4247 -0.0657
17928THY    HA335512   8.825   9.216   4.606 -1.2313 -0.1213  2.2463
17928THY    CA435513   8.946   9.300   4.752  0.3551 -0.3533 -0.0054
17928THY    HA435514   9.030   9.316   4.686  2.0290  1.4730 -0.8715
17928THY    CA535515   8.964   9.336   4.885  0.2451 -0.2637  0.0643
17928THY    CM135516   9.097   9.378   4.936  0.8271 -0.0346  0.0283
17928THY    HM135517   9.145   9.452   4.871  0.4093 -1.6105 -1.0053
17928THY    HM235518   9.158   9.288   4.953 -1.4180  0.9649 -1.3869
17928THY    HM335519   9.082   9.417   5.036 -1.1755  0.7424 -2.4305
17928THY    CA635520   8.853   9.322   4.974 -0.3258  0.6418 -1.6215
17928THY    HA635521   8.867   9.334   5.081  0.4643  0.4128 -0.3783
17929THY      O35522   8.356   1.017   3.288  0.3192 -0.1085  0.0652
17929THY     HO35523   8.300   0.940   3.307  1.0979  0.5417 -0.3591
17929THY    CA135524   8.369   1.086   3.408 -0.6626  0.3136 -0.0952
17929THY    CA235525   8.473   1.175   3.428  0.5065  0.8036 -0.3565
17929THY    CP135526   8.596   1.164   3.340 -0.6595  0.1088  0.2114
17929THY    HP135527   8.585   1.084   3.265 -0.4160 -0.6187  0.8408
17929THY    CP235528   8.701   1.097   3.426  0.2002  0.2857 -0.3567
17929THY    HP235529   8.719   1.165   3.510 -1.7947  0.1977  0.3531
17929THY    HP335530   8.783   1.103   3.354 -0.8385 -0.8119  1.4879
17929THY    HP435531   8.675   0.995   3.458 -2.0389 -0.6864 -0.1479
17929THY    CP335532   8.636   1.291   3.260 -0.5858 -0.7459  0.0811
17929THY    HP535533   8.725   1.274   3.199  1.5133  1.6599  1.7129
17929THY    HP635534   8.653   1.376   3.328  0.9448 -0.4797 -0.4084
17929THY    HP735535   8.550   1.318   3.197 -1.3076  0.5270  0.8685
17929THY    CA335536   8.456   1.278   3.531  0.0699  1.0462  0.5055
17929THY    HA335537   8.539   1.341   3.561  1.6374  0.8887 -1.3763
17929THY    CA435538   8.333   1.284   3.593 -0.5827 -0.5870 -0.2030
17929THY    HA435539   8.322   1.359   3.671  2.9367  0.1690 -0.2865
17929THY    CA535540   8.238   1.188   3.577 -0.2429 -0.6047  0.3239
17929THY    CM135541   8.118   1.197   3.675 -0.6328  0.0960  0.3321
17929THY    HM135542   8.073   1.101   3.700 -0.2158  2.1331  0.6185
17929THY    HM235543   8.049   1.263   3.620 -0.6319 -0.0551  0.2085
17929THY    HM335544   8.143   1.235   3.774 -0.9882  0.1520  0.4275
17929THY    CA635545   8.252   1.091   3.483  0.6808 -0.3351 -0.7409
17929THY    HA635546   8.172   1.024   3.454 -0.5907  2.4259 -0.5362
17930THY      O35547   7.684   7.908   7.543  0.0966  0.0787  0.3679
17930THY     HO35548   7.751   7.889   7.475 -0.3790 -0.4608  0.5854
17930THY    CA135549   7.636   8.030   7.520  0.1318  0.2158  0.1834
17930THY    CA235550   7.544   8.090   7.611 -0.8231  0.4520 -0.2895
17930THY    CP135551   7.489   8.015   7.733  0.0181  0.4738 -0.2541
17930THY    HP135552   7.570   7.952   7.772 -0.0052  0.7677 -0.1049
17930THY    CP235553   7.372   7.925   7.688 -0.2213 -0.3139 -0.1038
17930THY    HP235554   7.333   7.868   7.773 -0.1042  0.9523  1.6259
17930THY    HP335555   7.401   7.857   7.607  0.0115  0.2190 -0.6516
17930THY    HP435556   7.287   7.989   7.662  1.7323 -1.8451  2.0615
17930THY    CP335557   7.452   8.101   7.843 -0.4982  0.3050  0.5300
17930THY    HP535558   7.515   8.191   7.853  0.8168 -2.0158 -0.0311
17930THY    HP635559   7.456   8.045   7.936  1.4721  1.8207  2.9712
17930THY    HP735560   7.351   8.141   7.831 -0.4072 -0.3609  0.5751
17930THY    CA335561   7.486   8.211   7.576  0.0396  0.8424 -0.5259
17930THY    HA335562   7.409   8.254   7.639 -0.5412  0.1783 -0.5830
17930THY    CA435563   7.534   8.287   7.458 -0.0202 -0.6386  0.3719
17930THY    HA435564   7.496   8.387   7.443  0.9335  1.6829  1.1662
17930THY    CA535565   7.618   8.215   7.368  0.1158  0.3500  0.6363
17930THY    CM135566   7.640   8.277   7.238  0.6724 -0.1013 -0.1716
17930THY    HM135567   7.637   8.386   7.241  0.3948  5.0215 -0.0555
17930THY    HM235568   7.573   8.237   7.161  1.5290  0.0669 -2.0783
17930THY    HM335569   7.735   8.241   7.198 -0.1626 -0.4861 -2.1114
17930THY    CA635570   7.664   8.088   7.401 -0.5351 -0.5623 -1.1760
17930THY    HA635571   7.713   8.034   7.322 -1.3794 -1.9543  0.0132
17931THY      O35572   6.467   5.774   5.051  0.8334  0.0369  0.3270
17931THY     HO35573   6.401   5.813   4.990 -0.5764  0.4356 -1.3259
17931THY    CA135574   6.401   5.668   5.104 -0.3285 -0.3434  0.3473
17931THY    CA235575   6.465   5.585   5.203  0.8751 -0.2290  0.0239
17931THY    CP135576   6.593   5.638   5.271 -0.5527 -0.1122 -0.3236
17931THY    HP135577   6.605   5.745   5.253 -2.1626  1.4317  0.1569
17931THY    CP235578   6.714   5.560   5.216  0.5240  0.3338 -0.8305
17931THY    HP235579   6.714   5.563   5.106  1.7726  0.3247 -0.3077
17931THY    HP335580   6.713   5.452   5.233  0.0955 -3.2476 -1.5193
17931THY    HP435581   6.805   5.615   5.242 -0.3902 -1.0733  1.4998
17931THY    CP335582   6.599   5.622   5.420  0.0351  0.0191  0.6709
17931THY    HP535583   6.524   5.688   5.464  0.8844  0.0851  1.6229
17931THY    HP635584   6.695   5.648   5.467 -0.5680  2.6135 -1.3512
17931THY    HP735585   6.593   5.521   5.463  0.7283  1.7063  1.3113
17931THY    CA335586   6.399   5.461   5.239 -0.5802  0.3469 -0.6939
17931THY    HA335587   6.440   5.388   5.309 -2.7414 -0.9084 -3.2996
17931THY    CA435588   6.299   5.418   5.152  0.1187 -0.0024  0.0589
17931THY    HA435589   6.259   5.317   5.159 -1.7586 -2.7222  0.5174
17931THY    CA535590   6.237   5.498   5.054  0.2634 -0.6042  0.0457
17931THY    CM135591   6.128   5.442   4.968 -0.3288 -0.4702 -0.0791
17931THY    HM135592   6.127   5.332   4.976 -1.2314 -0.5188 -0.0830
17931THY    HM235593   6.148   5.461   4.862  1.4618 -0.4192 -1.4687
17931THY    HM335594   6.027   5.480   4.989  0.1337 -1.7938  2.0203
17931THY    CA635595   6.285   5.627   5.033 -0.9786  0.3182  0.8292
17931THY    HA635596   6.238   5.682   4.952 -3.6442 -0.9188 -2.9152
17932THY      O35597   8.125   7.751   2.545 -0.0124  0.1182  0.0198
17932THY     HO35598   8.084   7.812   2.481 -0.3620  1.6941  1.4866
17932THY    CA135599   8.165   7.634   2.495 -0.1039  0.2538 -0.1903
17932THY    CA235600   8.189   7.524   2.588  0.0442 -0.1908 -0.3322
17932THY    CP135601   8.173   7.553   2.742 -0.2629 -0.1362 -0.6721
17932THY    HP135602   8.190   7.660   2.757  0.6281 -2.0713 -0.4893
17932THY    CP235603   8.280   7.485   2.825  0.0435  0.2654  0.7235
17932THY    HP235604   8.383   7.510   2.795 -0.5741 -2.4862  0.2471
17932THY    HP335605   8.260   7.379   2.809 -1.9185 -0.9647  1.2289
17932THY    HP435606   8.264   7.506   2.932 -1.4159 -0.4039  3.5279
17932THY    CP335607   8.032   7.529   2.786 -0.0034  0.8146  0.1442
17932THY    HP535608   7.952   7.575   2.727 -0.5033  0.3415 -1.2541
17932THY    HP635609   8.014   7.583   2.880 -2.5570  0.5000 -0.0272
17932THY    HP735610   7.996   7.425   2.792  0.0219 -3.1543 -0.2563
17932THY    CA335611   8.217   7.394   2.542 -0.6800 -0.1470  0.1245
17932THY    HA335612   8.225   7.313   2.614  0.6714 -0.7477 -0.3029
17932THY    CA435613   8.242   7.376   2.407  0.4519 -0.3734 -0.5059
17932THY    HA435614   8.272   7.279   2.367  1.4315  0.0269 -0.3816
17932THY    CA535615   8.225   7.483   2.318 -0.7239 -0.4549  0.0864
17932THY    CM135616   8.238   7.448   2.176  0.6852  0.5237 -0.5978
17932THY    HM135617   8.335   7.403   2.153  0.9247 -1.3821  0.7721
17932THY    HM235618   8.228   7.543   2.122  0.3946 -0.2110 -1.0322
17932THY    HM335619   8.162   7.376   2.142 -0.9096  1.3708  0.6208
17932THY    CA635620   8.188   7.614   2.359 -0.6052 -0.0808 -0.1112
17932THY    HA635621   8.175   7.688   2.281 -0.3904 -1.0303 -1.0392
17933THY      O35622   2.543   2.884   5.874 -0.1113 -0.2626  0.5415
17933THY     HO35623   2.623   2.839   5.841  0.1142  0.3879  0.4499
17933THY    CA135624   2.487   2.947   5.771 -0.5278  0.2015 -0.2945
17933THY    CA235625   2.352   2.981   5.774 -0.2919  0.4564 -0.2598
17933THY    CP135626   2.264   2.961   5.906 -0.2450 -0.1325 -0.1174
17933THY    HP135627   2.314   2.882   5.962 -0.4823 -0.3925 -0.4539
17933THY    CP235628   2.116   2.921   5.889  0.0803 -0.0805 -0.3121
17933THY    HP235629   2.099   2.884   5.788 -0.2397 -0.8804  1.9191
17933THY    HP335630   2.046   3.000   5.917  0.4318 -1.1649  0.3934
17933THY    HP435631   2.095   2.843   5.964  0.5488 -0.4889 -0.8381
17933THY    CP335632   2.266   3.086   5.986  0.3159 -0.3248 -0.3161
17933THY    HP535633   2.225   3.067   6.086 -0.1399 -0.1362  1.4740
17933THY    HP635634   2.224   3.177   5.942  1.0174  0.5891  0.4698
17933THY    HP735635   2.371   3.114   6.003  0.4309 -1.6190  0.1056
17933THY    CA335636   2.295   3.064   5.674 -0.4735  0.1062 -0.9690
17933THY    HA335637   2.193   3.100   5.681 -0.7712 -3.0586 -0.9791
17933THY    CA435638   2.381   3.119   5.570 -0.6079 -0.1581  0.4862
17933THY    HA435639   2.339   3.186   5.496 -2.2447  1.0307  0.8570
17933THY    CA535640   2.512   3.075   5.560  0.1208  0.7762 -0.1827
17933THY    CM135641   2.585   3.123   5.440 -0.0084  0.2338  0.2491
17933THY    HM135642   2.546   3.085   5.344  0.3834 -0.6958  2.0411
17933THY    HM235643   2.685   3.079   5.447  0.1982  3.5769  0.9752
17933THY    HM335644   2.593   3.232   5.429 -1.0412 -0.4843  0.2719
17933THY    CA635645   2.566   2.998   5.662  0.0448 -0.6738  0.4764
17933THY    HA635646   2.670   2.968   5.649 -0.4092  0.8572 -2.0768
17934THY      O35647   8.677   7.129   4.122 -0.3940  0.1209 -0.5372
17934THY     HO35648   8.673   7.033   4.139 -0.9486  0.3914 -0.4692
17934THY    CA135649   8.559   7.157   4.054 -0.1694 -0.0101 -0.6886
17934THY    CA235650   8.534   7.295   4.027 -0.8726  0.7834 -0.6902
17934THY    CP135651   8.621   7.418   4.082  1.1084 -0.4187 -0.0801
17934THY    HP135652   8.708   7.376   4.135 -1.0090  1.9311 -1.7512
17934THY    CP235653   8.534   7.490   4.197 -0.6304 -0.2770  0.0134
17934THY    HP235654   8.491   7.416   4.265  2.6949  0.7543 -1.1580
17934THY    HP335655   8.448   7.545   4.157 -0.8937  0.9644  0.5406
17934THY    HP435656   8.594   7.567   4.249  0.9870 -1.6469 -0.2480
17934THY    CP335657   8.651   7.522   3.967 -0.1981  0.3774  0.1967
17934THY    HP535658   8.673   7.623   4.003  0.3024  3.3161 -0.8639
17934THY    HP635659   8.559   7.547   3.912 -1.0352  1.1236 -1.1463
17934THY    HP735660   8.739   7.489   3.909 -0.4663  1.1659 -2.0588
17934THY    CA335661   8.409   7.325   3.963  0.5533 -0.0962 -0.0687
17934THY    HA335662   8.377   7.427   3.949 -2.2327  2.6295 -0.4218
17934THY    CA435663   8.327   7.215   3.936 -0.1030  0.0623  0.6160
17934THY    HA435664   8.225   7.233   3.902  0.1246  0.4879  3.0802
17934THY    CA535665   8.359   7.085   3.958  0.5619 -0.4546  0.8172
17934THY    CM135666   8.263   6.969   3.931  0.3011  0.1327 -0.7465
17934THY    HM135667   8.297   6.919   3.839  4.5889  1.8129 -1.4455
17934THY    HM235668   8.162   7.007   3.915  0.3043  1.5979 -0.0781
17934THY    HM335669   8.275   6.895   4.011  1.6376  0.3994 -0.2718
17934THY    CA635670   8.477   7.050   4.023 -0.0509  0.2990  0.2454
17934THY    HA635671   8.511   6.947   4.033 -1.4689  0.0390 -0.2625
17935THY      O35672   2.140   1.092   2.930  0.0937 -0.6150 -0.0236
17935THY     HO35673   2.129   1.182   2.895  1.1755 -1.0290 -0.0270
17935THY    CA135674   2.268   1.068   2.961 -0.4923 -0.2623  0.8637
17935THY    CA235675   2.312   0.946   2.996  0.5247 -0.1167 -0.1368
17935THY    CP135676   2.205   0.840   3.005  0.1047 -0.1155  0.1369
17935THY    HP135677   2.135   0.853   2.923 -0.5937  0.3650 -0.5593
17935THY    CP235678   2.131   0.857   3.135  0.5807  0.5439  0.2204
17935THY    HP235679   2.053   0.782   3.151 -0.6510 -2.4117  0.7174
17935THY    HP335680   2.080   0.954   3.127  4.9420 -1.8670  2.6445
17935THY    HP435681   2.208   0.863   3.213  1.5873 -0.3062 -1.2263
17935THY    CP335682   2.249   0.698   2.992 -0.5237 -0.3114  0.1474
17935THY    HP535683   2.328   0.682   2.918  0.3713  0.8851 -1.1508
17935THY    HP635684   2.169   0.625   2.970  0.5229  0.3003 -1.2248
17935THY    HP735685   2.293   0.675   3.089  1.7875 -0.9766  1.4841
17935THY    CA335686   2.448   0.927   3.030 -0.0555  0.5094 -0.0493
17935THY    HA335687   2.478   0.828   3.062 -1.9357 -0.1357 -0.8659
17935THY    CA435688   2.544   1.027   3.009 -1.0449 -0.1331 -0.1546
17935THY    HA435689   2.650   1.020   3.032 -0.1331 -2.5935  3.0654
17935THY    CA535690   2.496   1.152   2.964  0.4085 -0.3914 -0.3729
17935THY    CM135691   2.593   1.258   2.936  0.4991  0.1526  0.5409
17935THY    HM135692   2.545   1.350   2.969 -0.5192  1.0363 -0.2815
17935THY    HM235693   2.620   1.264   2.830 -2.4064 -0.6372  0.7056
17935THY    HM335694   2.685   1.248   2.996  0.9578 -0.5413  0.5208
17935THY    CA635695   2.361   1.174   2.942 -0.1353 -0.0999  0.2784
17935THY    HA635696   2.329   1.272   2.906 -1.4038  1.6336  0.5448
17936THY      O35697   1.917   0.687   5.025 -1.0718 -0.6520  0.1357
17936THY     HO35698   1.962   0.609   5.062  0.4292  1.0228  1.6942
17936THY    CA135699   1.937   0.771   5.120  0.5269  0.1686  0.3865
17936THY    CA235700   2.016   0.890   5.114  0.0299  0.3716 -0.7211
17936THY    CP135701   2.046   0.957   4.980  0.4721 -0.4136 -0.1612
17936THY    HP135702   2.008   0.898   4.896 -0.4085  0.5969 -1.0700
17936THY    CP235703   2.188   0.970   4.950  0.0555 -0.3369  0.2066
17936THY    HP235704   2.198   1.012   4.849  0.3898  0.4576  2.1911
17936THY    HP335705   2.239   0.874   4.937 -0.4675 -0.1487 -0.0973
17936THY    HP435706   2.237   1.036   5.023  1.1722  0.6035 -1.5837
17936THY    CP335707   1.973   1.092   4.972  0.2620  0.0119  0.1099
17936THY    HP535708   1.980   1.132   4.870 -2.4656 -0.2131  0.2204
17936THY    HP635709   2.013   1.163   5.045  0.3309 -0.2865  0.3794
17936THY    HP735710   1.866   1.076   4.990 -0.0797 -1.7446  0.2373
17936THY    CA335711   2.036   0.951   5.236 -0.1702 -0.4625 -0.8060
17936THY    HA335712   2.095   1.042   5.239 -0.4567 -0.0940 -0.6257
17936THY    CA435713   1.996   0.900   5.356 -0.2962 -0.1259 -0.2530
17936THY    HA435714   2.020   0.950   5.449  0.7691 -0.4873 -0.0834
17936THY    CA535715   1.912   0.787   5.352 -0.7882  0.5901  0.5781
17936THY    CM135716   1.860   0.734   5.480 -0.5841  0.0838  0.4097
17936THY    HM135717   1.771   0.784   5.521 -0.2849  0.1230  0.9249
17936THY    HM235718   1.937   0.746   5.557 -0.7096  0.3587 -0.4926
17936THY    HM335719   1.818   0.633   5.477 -0.9992  0.9258  0.5463
17936THY    CA635720   1.890   0.721   5.237  0.2307 -0.0521 -0.0192
17936THY    HA635721   1.820   0.638   5.234  0.7018 -2.3547 -0.3978
17937THY      O35722   7.546   3.383   3.134  0.4111  0.4967 -0.7509
17937THY     HO35723   7.548   3.377   3.037 -1.7374  0.2823  0.7338
17937THY    CA135724   7.558   3.251   3.167 -0.1274 -0.4360  0.3002
17937THY    CA235725   7.633   3.208   3.282 -0.1794 -0.2428 -0.0424
17937THY    CP135726   7.686   3.308   3.390  0.0170  0.5120 -0.0304
17937THY    HP135727   7.713   3.400   3.338  1.8921  1.6019  0.0764
17937THY    CP235728   7.816   3.258   3.452  0.1996 -0.4249 -0.2755
17937THY    HP235729   7.858   3.320   3.532  0.0981 -0.5482 -0.0484
17937THY    HP335730   7.901   3.247   3.383  0.9717  0.5799 -0.7935
17937THY    HP435731   7.782   3.170   3.508 -0.1924 -1.2794 -0.6778
17937THY    CP335732   7.575   3.332   3.493 -0.2093 -0.0717 -0.3944
17937THY    HP535733   7.518   3.246   3.530  0.2627  2.0245  0.1395
17937THY    HP635734   7.493   3.390   3.448  1.2958 -0.4351  1.5848
17937THY    HP735735   7.624   3.394   3.569 -1.0456  0.0802  0.1029
17937THY    CA335736   7.646   3.071   3.305 -0.5473 -0.3512  0.7085
17937THY    HA335737   7.704   3.029   3.386  1.4527 -1.1939  1.7158
17937THY    CA435738   7.584   2.979   3.223  0.6009  0.2342  0.1240
17937THY    HA435739   7.599   2.872   3.232 -1.6352  0.1575 -0.2391
17937THY    CA535740   7.511   3.023   3.116  0.8567 -0.0119 -0.0672
17937THY    CM135741   7.452   2.919   3.028 -0.1318  0.2262 -0.1850
17937THY    HM135742   7.356   2.879   3.062 -2.1869 -2.3553  2.1782
17937THY    HM235743   7.518   2.833   3.008 -2.0309  0.1431 -1.6775
17937THY    HM335744   7.419   2.967   2.935 -0.5172  0.9514  1.0039
17937THY    CA635745   7.499   3.157   3.085 -0.1183 -0.8581  0.2593
17937THY    HA635746   7.437   3.174   2.998 -0.1604 -1.1086 -1.0839
17938THY      O35747   1.695   5.641   2.603 -0.1370 -0.2816  0.3629
17938THY     HO35748   1.614   5.672   2.559 -0.4407 -1.0150 -1.3285
17938THY    CA135749   1.695   5.694   2.730  0.7686 -0.1483  0.2555
17938THY    CA235750   1.808   5.707   2.811  0.2099 -0.0061  0.1246
17938THY    CP135751   1.940   5.636   2.767 -0.4799  0.0247 -0.1396
17938THY    HP135752   1.899   5.548   2.716 -1.1082 -2.1065  1.3128
17938THY    CP235753   2.034   5.592   2.878  0.4467 -0.3598 -0.2185
17938THY    HP235754   2.123   5.542   2.838  1.7933 -0.7988  2.3663
17938THY    HP335755   1.978   5.531   2.950  2.2202  1.8401  0.6034
17938THY    HP435756   2.069   5.674   2.941 -0.3400 -2.2349  1.6542
17938THY    CP335757   2.024   5.718   2.672  0.5968 -0.0998 -0.4719
17938THY    HP535758   2.108   5.654   2.642 -1.1257 -4.3127 -1.1201
17938THY    HP635759   2.053   5.807   2.728  2.1865  0.5781 -1.3646
17938THY    HP735760   1.973   5.748   2.580 -1.2625  1.3695  1.0904
17938THY    CA335761   1.807   5.765   2.937  0.4809 -0.0330 -1.0945
17938THY    HA335762   1.893   5.784   3.001  0.2191 -0.7895  4.5385
17938THY    CA435763   1.689   5.828   2.983 -0.1130  0.5828 -0.8243
17938THY    HA435764   1.680   5.879   3.078 -1.3975  0.8596 -1.5231
17938THY    CA535765   1.576   5.823   2.894  0.6574  0.7672 -0.2043
17938THY    CM135766   1.447   5.883   2.943 -0.5892  0.4330  0.0209
17938THY    HM135767   1.444   5.888   3.053  1.8301  0.5064  1.8191
17938THY    HM235768   1.358   5.831   2.905 -0.6397 -0.5845  0.8276
17938THY    HM335769   1.449   5.988   2.911 -3.5765 -0.8615 -0.2198
17938THY    CA635770   1.579   5.754   2.773  0.3240 -0.1855  0.5822
17938THY    HA635771   1.488   5.733   2.717  0.8722 -0.6022 -0.7855
17939THY      O35772   1.412   1.645   6.555  0.2098 -0.5464  0.0552
17939THY     HO35773   1.497   1.643   6.602 -0.1219  0.0590  0.0308
17939THY    CA135774   1.372   1.769   6.587 -0.1847  0.5552 -0.4893
17939THY    CA235775   1.272   1.840   6.533  0.2307  0.3829  0.1948
17939THY    CP135776   1.203   1.785   6.402 -0.0775  0.5061 -0.4689
17939THY    HP135777   1.221   1.677   6.410 -1.0797  0.8478 -0.6244
17939THY    CP235778   1.260   1.860   6.276 -0.1277  0.1129  0.0972
17939THY    HP235779   1.369   1.855   6.272 -0.1611  0.5613 -1.2237
17939THY    HP335780   1.231   1.963   6.250  1.3883 -2.1882 -0.0069
17939THY    HP435781   1.222   1.798   6.194 -0.3980  0.7732 -0.6280
17939THY    CP335782   1.048   1.801   6.398 -0.8672 -0.3039 -0.2539
17939THY    HP535783   1.006   1.777   6.299 -2.0651 -0.9780  3.8431
17939THY    HP635784   1.013   1.903   6.416 -1.4310 -0.2523 -0.4481
17939THY    HP735785   1.014   1.725   6.470 -1.6898 -0.5177 -0.0972
17939THY    CA335786   1.238   1.963   6.575  0.1928  0.2052 -0.6367
17939THY    HA335787   1.154   2.018   6.532 -2.2938  1.1476 -3.3922
17939THY    CA435788   1.309   2.023   6.679 -0.0634  0.0733 -0.3779
17939THY    HA435789   1.293   2.126   6.708 -0.0606 -1.3710  0.0530
17939THY    CA535790   1.410   1.952   6.743  0.6121 -0.4617  0.7218
17939THY    CM135791   1.470   1.997   6.864  0.1458 -0.4672  0.0446
17939THY    HM135792   1.569   1.955   6.883  1.5420 -1.4360  2.6119
17939THY    HM235793   1.416   1.978   6.957  1.1858  0.4257  1.2724
17939THY    HM335794   1.491   2.105   6.860  0.0115 -2.9970  0.0431
17939THY    CA635795   1.435   1.825   6.694 -0.4036  0.0482  0.6735
17939THY    HA635796   1.507   1.772   6.755  0.1930 -0.4757  0.8756
17940THY      O35797   4.786   1.159   6.588  0.2171  0.3826 -0.1830
17940THY     HO35798   4.769   1.170   6.493 -3.3296  0.7284 -1.5637
17940THY    CA135799   4.925   1.173   6.596 -0.2055  0.1412  0.0048
17940THY    CA235800   5.001   1.133   6.696  0.0185  0.1679  0.2569
17940THY    CP135801   4.939   1.043   6.808  0.2414 -0.3695 -0.3990
17940THY    HP135802   4.837   1.016   6.777  0.1160 -0.3356  0.0325
17940THY    CP235803   4.931   1.119   6.935  0.1262 -0.0610  0.2463
17940THY    HP235804   5.030   1.154   6.969  0.3840  0.4687 -0.9263
17940THY    HP335805   4.895   1.064   7.023  0.1553 -0.6225 -0.7041
17940THY    HP435806   4.858   1.200   6.928  0.3331 -2.8142  0.2976
17940THY    CP335807   5.006   0.909   6.811 -0.6121 -0.3796  0.0398
17940THY    HP535808   4.977   0.844   6.728  0.5869 -1.0606  0.3262
17940THY    HP635809   4.979   0.851   6.900  1.7208  0.6405  0.3796
17940THY    HP735810   5.116   0.917   6.810 -0.3991  2.1232 -1.5480
17940THY    CA335811   5.130   1.183   6.714 -0.3650  0.3347 -0.2703
17940THY    HA335812   5.183   1.155   6.804 -0.2586  0.0387 -1.0460
17940THY    CA435813   5.191   1.248   6.608 -0.4386 -0.0764 -0.6715
17940THY    HA435814   5.297   1.268   6.618 -0.1018 -1.5935 -1.5477
17940THY    CA535815   5.118   1.280   6.496  0.3111 -0.1629  0.6817
17940THY    CM135816   5.183   1.346   6.377  0.4035  0.3332  0.3366
17940THY    HM135817   5.292   1.354   6.374  0.4235  1.9186  1.0251
17940THY    HM235818   5.141   1.446   6.359  0.3909 -0.6255  0.1647
17940THY    HM335819   5.160   1.292   6.284 -0.6595  1.1286 -0.6262
17940THY    CA635820   4.985   1.241   6.488 -0.0383 -0.6262 -0.3494
17940THY    HA635821   4.926   1.278   6.404  2.6186 -2.7467 -0.5469
17941THY      O35822   0.369   4.906   2.965  0.5174  0.3615 -0.0517
17941THY     HO35823   0.334   4.860   2.887 -0.7264  1.4256 -0.9496
17941THY    CA135824   0.498   4.930   2.935 -0.0724  0.4451  0.7808
17941THY    CA235825   0.586   5.004   3.025  0.0347 -0.0934 -0.1923
17941THY    CP135826   0.526   5.074   3.147 -0.7652 -0.3342  0.8699
17941THY    HP135827   0.430   5.030   3.176  0.5493  1.8019 -0.8103
17941THY    CP235828   0.499   5.226   3.101 -0.4365 -0.3854  0.8017
17941THY    HP235829   0.423   5.236   3.023  0.1361 -1.1966 -0.8063
17941THY    HP335830   0.594   5.262   3.061  0.9615  0.8064 -1.3289
17941THY    HP435831   0.466   5.295   3.180  0.8969 -0.5597  1.6737
17941THY    CP335832   0.612   5.079   3.274  0.2706  0.2006 -0.2487
17941THY    HP535833   0.707   5.133   3.266 -1.0750 -0.8592  2.1444
17941THY    HP635834   0.624   4.973   3.300 -1.9007 -0.7050 -0.7830
17941THY    HP735835   0.556   5.131   3.353 -0.3780 -1.3371  1.4830
17941THY    CA335836   0.726   5.023   2.994  0.0747 -0.0439  0.4560
17941THY    HA335837   0.791   5.068   3.068 -0.3971  1.4868 -1.2557
17941THY    CA435838   0.772   4.953   2.881  0.3682  0.4232  0.0734
17941THY    HA435839   0.875   4.963   2.849  0.6459  0.4588 -2.0729
17941THY    CA535840   0.687   4.883   2.795 -0.5229 -0.0857 -0.0001
17941THY    CM135841   0.733   4.817   2.661  0.1115 -0.0303 -0.7226
17941THY    HM135842   0.824   4.757   2.673  0.2747 -0.6425 -0.6047
17941THY    HM235843   0.759   4.905   2.600  0.7166  0.4650 -0.5494
17941THY    HM335844   0.651   4.764   2.612 -2.7918  1.3382  2.1220
17941THY    CA635845   0.551   4.864   2.830 -0.3802 -0.6842  0.5245
17941THY    HA635846   0.495   4.783   2.785  0.6130  2.6459 -2.2404
17942THY      O35847   3.524   2.436   5.600 -0.2575 -0.3438 -0.2123
17942THY     HO35848   3.552   2.363   5.543 -0.9117  1.0587 -1.6063
17942THY    CA135849   3.548   2.551   5.535  0.5749  0.0998  0.1979
17942THY    CA235850   3.509   2.674   5.593 -0.1708  0.7222 -0.1587
17942THY    CP135851   3.441   2.673   5.729  0.6349 -0.7257 -0.4938
17942THY    HP135852   3.462   2.576   5.775 -2.1371 -0.7477 -1.2011
17942THY    CP235853   3.291   2.704   5.732 -0.7656 -0.2226  0.4057
17942THY    HP235854   3.252   2.694   5.835 -0.1340  0.0227  0.4087
17942THY    HP335855   3.230   2.630   5.679 -1.3257  2.8812 -1.5702
17942THY    HP435856   3.281   2.805   5.693  1.5542  1.2702  1.3041
17942THY    CP335857   3.512   2.778   5.821 -0.3108  0.0105  0.0830
17942THY    HP535858   3.621   2.762   5.814 -0.1645  2.0004 -0.0202
17942THY    HP635859   3.492   2.765   5.928 -0.4863  0.1519  1.3992
17942THY    HP735860   3.498   2.884   5.800 -0.2716  0.4752  0.1782
17942THY    CA335861   3.522   2.789   5.517  0.4106  0.1723 -0.1896
17942THY    HA335862   3.489   2.886   5.553 -1.0503 -2.0171  0.1934
17942THY    CA435863   3.574   2.780   5.387 -0.1752  0.3411 -0.2309
17942THY    HA435864   3.589   2.872   5.331  0.1721 -0.2143 -0.6223
17942THY    CA535865   3.624   2.658   5.332 -0.4553  0.5285 -0.0434
17942THY    CM135866   3.681   2.654   5.199  0.2013 -0.3411  0.1953
17942THY    HM135867   3.778   2.603   5.195 -0.2022 -3.5405 -0.5474
17942THY    HM235868   3.695   2.754   5.156 -1.9765 -0.3906  0.5311
17942THY    HM335869   3.617   2.598   5.130  1.0524 -2.4136  1.6468
17942THY    CA635870   3.602   2.543   5.405  0.1243 -1.3357 -0.0377
17942THY    HA635871   3.616   2.446   5.358 -0.9753 -1.4932 -0.1317
17943THY      O35872   5.673   0.622   6.480  0.1840 -0.0558 -0.5675
17943THY     HO35873   5.691   0.702   6.428 -0.6293 -0.7898 -0.8393
17943THY    CA135874   5.546   0.648   6.519 -0.3552 -0.2572  0.3075
17943THY    CA235875   5.477   0.552   6.599 -0.3775  0.1610  0.2007
17943THY    CP135876   5.546   0.417   6.633  0.2706  1.1845 -0.0036
17943THY    HP135877   5.594   0.387   6.539 -1.2045  0.6976 -0.9422
17943THY    CP235878   5.447   0.308   6.666 -0.4252 -0.0043 -0.3267
17943THY    HP235879   5.362   0.301   6.598 -0.0833 -0.3836 -0.9272
17943THY    HP335880   5.401   0.319   6.765  0.9061  0.6184 -0.1928
17943THY    HP435881   5.498   0.211   6.671  0.3411  0.5396  0.0903
17943THY    CP335882   5.649   0.440   6.746 -1.0170 -0.6437  0.0413
17943THY    HP535883   5.604   0.476   6.839  1.8264  0.7240  0.3439
17943THY    HP635884   5.734   0.506   6.724  0.1492 -0.4573 -1.3444
17943THY    HP735885   5.703   0.350   6.777  0.0295  0.0707  0.8908
17943THY    CA335886   5.346   0.575   6.639  0.0119  0.0553 -0.4068
17943THY    HA335887   5.285   0.507   6.697  1.0707  1.6070 -0.0826
17943THY    CA435888   5.292   0.702   6.615  0.3528 -0.1904 -0.4442
17943THY    HA435889   5.198   0.729   6.662  1.4957  0.8705  2.0334
17943THY    CA535890   5.357   0.786   6.528  0.2575 -0.2325 -0.3579
17943THY    CM135891   5.287   0.906   6.482  0.9096  0.5431  0.1436
17943THY    HM135892   5.302   0.920   6.375  0.7277  0.7396  2.1086
17943THY    HM235893   5.326   0.990   6.542 -1.7592  0.3792  1.6114
17943THY    HM335894   5.181   0.900   6.509  0.7869  0.3429  1.1510
17943THY    CA635895   5.487   0.760   6.480 -0.3359 -0.0977 -0.2099
17943THY    HA635896   5.536   0.840   6.425  0.2398  0.9212  0.1577
17944THY      O35897   4.819   2.388   3.998  0.1874  0.1145 -0.4280
17944THY     HO35898   4.804   2.443   4.077 -1.8267  1.0615 -2.2230
17944THY    CA135899   4.770   2.264   4.023 -0.0077  0.0632 -0.0515
17944THY    CA235900   4.734   2.165   3.929 -0.4147 -0.1755 -0.4224
17944THY    CP135901   4.738   2.209   3.783 -0.4907  0.0408  0.0289
17944THY    HP135902   4.821   2.274   3.755 -0.5648  0.3313  0.2496
17944THY    CP235903   4.616   2.302   3.749 -0.5237 -0.0135 -0.2697
17944THY    HP235904   4.626   2.397   3.803  0.3184 -0.6844  0.0419
17944THY    HP335905   4.528   2.262   3.799 -0.4753  0.6251  0.3873
17944THY    HP435906   4.599   2.332   3.645  1.3011 -0.1604  0.3910
17944THY    CP335907   4.748   2.095   3.678 -0.4655 -0.4654 -0.7101
17944THY    HP535908   4.759   2.144   3.581  1.5857 -1.9211 -3.7335
17944THY    HP635909   4.657   2.034   3.684  0.0887  0.9866 -1.4256
17944THY    HP735910   4.836   2.035   3.704 -0.4546  0.5586 -0.2584
17944THY    CA335911   4.700   2.036   3.970  0.1916 -0.4221  0.0223
17944THY    HA335912   4.674   1.963   3.894  2.2360 -1.0894 -0.0690
17944THY    CA435913   4.687   2.003   4.106  0.6017  0.3348  0.2139
17944THY    HA435914   4.648   1.904   4.129  1.8790 -1.5921 -0.7986
17944THY    CA535915   4.721   2.094   4.203 -0.9938  0.0705 -0.0234
17944THY    CM135916   4.699   2.062   4.342 -0.1403  0.1071  0.1553
17944THY    HM135917   4.670   1.958   4.360  2.6846  0.6308 -0.6269
17944THY    HM235918   4.619   2.132   4.370 -1.6479 -1.9679 -0.6385
17944THY    HM335919   4.790   2.078   4.400  1.1356 -1.5506 -0.7588
17944THY    CA635920   4.773   2.222   4.161  0.1557 -0.4807 -0.3458
17944THY    HA635921   4.802   2.296   4.235  0.1935 -2.5921  1.8774
17945THY      O35922   3.970   1.302   6.394 -0.1297  0.4895  0.0521
17945THY     HO35923   4.062   1.332   6.394 -0.5569 -0.2569  1.4323
17945THY    CA135924   3.960   1.203   6.492  0.0033 -0.3936 -0.2526
17945THY    CA235925   3.841   1.121   6.495  0.1295 -0.6847  0.3044
17945THY    CP135926   3.739   1.134   6.380 -0.1691 -0.1194  0.3224
17945THY    HP135927   3.768   1.217   6.315 -2.4475  1.0214  2.1149
17945THY    CP235928   3.593   1.164   6.427  0.0572 -0.3017 -0.1983
17945THY    HP235929   3.555   1.089   6.499 -3.2447 -2.4206 -0.7783
17945THY    HP335930   3.526   1.181   6.342  1.4040 -0.7975  3.2684
17945THY    HP435931   3.592   1.261   6.477  1.4135 -2.5693  1.0587
17945THY    CP335932   3.743   1.008   6.295  0.4091 -0.0346 -0.3081
17945THY    HP535933   3.711   1.022   6.191 -0.0765  0.2073  0.4569
17945THY    HP635934   3.680   0.926   6.331 -0.6482 -0.7878  0.1491
17945THY    HP735935   3.842   0.961   6.287  1.4673  1.6265  1.4858
17945THY    CA335936   3.824   1.033   6.603 -0.8137  0.0737 -0.1953
17945THY    HA335937   3.741   0.964   6.618  0.5366  0.2120 -1.8662
17945THY    CA435938   3.923   1.031   6.702 -0.5567 -0.6688  0.7878
17945THY    HA435939   3.908   0.969   6.789  1.4583  0.2117  1.4567
17945THY    CA535940   4.038   1.110   6.693 -0.1484 -0.1109 -0.6621
17945THY    CM135941   4.144   1.107   6.803 -0.4795  0.2012  0.0659
17945THY    HM135942   4.106   1.027   6.868 -0.2599 -0.0979 -0.2859
17945THY    HM235943   4.150   1.203   6.855  0.4659  0.1643  0.0384
17945THY    HM335944   4.241   1.067   6.769 -1.0941  0.4557 -1.7063
17945THY    CA635945   4.057   1.202   6.589 -0.7237  0.3626 -0.3986
17945THY    HA635946   4.146   1.264   6.584 -0.1303  1.0277 -1.1825
17946THY      O35947   7.768   8.355   3.814 -0.2256  0.4119  0.0858
17946THY     HO35948   7.726   8.427   3.864 -1.0893 -2.6964  1.9315
17946THY    CA135949   7.842   8.414   3.723  0.3236 -0.3197  0.7824
17946THY    CA235950   7.942   8.344   3.659  0.5523 -0.1498 -0.0316
17946THY    CP135951   7.966   8.203   3.692 -0.6830  0.2223 -0.2120
17946THY    HP135952   7.954   8.197   3.801 -1.7310  0.0759 -1.4394
17946THY    CP235953   8.113   8.153   3.650  0.5265 -0.2135  0.4813
17946THY    HP235954   8.194   8.215   3.691  0.0082 -0.7984  1.5798
17946THY    HP335955   8.128   8.125   3.545  0.2137  0.0888 -0.8732
17946THY    HP435956   8.135   8.055   3.695 -0.7411 -0.7442 -0.0706
17946THY    CP335957   7.868   8.114   3.617  0.3834 -0.2435 -0.4387
17946THY    HP535958   7.896   8.012   3.644 -1.7058 -1.0205 -1.2851
17946THY    HP635959   7.875   8.123   3.508 -1.1131 -0.3386 -0.0670
17946THY    HP735960   7.761   8.132   3.632  0.8645  1.7430  1.1809
17946THY    CA335961   8.018   8.408   3.561  0.0042  0.4326 -0.6243
17946THY    HA335962   8.102   8.357   3.515 -0.3813  0.3675 -1.2149
17946THY    CA435963   7.982   8.547   3.527 -0.3932  0.9926  0.6781
17946THY    HA435964   8.053   8.600   3.464 -1.1178  0.5695  1.1597
17946THY    CA535965   7.880   8.612   3.597 -0.3805  0.7301  0.5765
17946THY    CM135966   7.858   8.757   3.568  0.1582  0.3381 -0.0889
17946THY    HM135967   7.864   8.804   3.667 -0.1991 -0.1140  0.9520
17946THY    HM235968   7.760   8.777   3.524 -0.2599  0.7092 -1.2728
17946THY    HM335969   7.940   8.793   3.505 -0.5264  1.0889  3.0879
17946THY    CA635970   7.803   8.548   3.690  0.1028  0.1559  0.3872
17946THY    HA635971   7.721   8.596   3.744 -0.0023 -0.0584  0.4473
17947THY      O35972   1.819   6.746   7.591  0.5764 -0.0711 -0.0554
17947THY     HO35973   1.723   6.737   7.573  0.7843 -1.3534  0.1093
17947THY    CA135974   1.877   6.762   7.476  0.3041  0.2482  0.0612
17947THY    CA235975   2.012   6.741   7.459  0.0230  0.3127  0.5545
17947THY    CP135976   2.106   6.693   7.570 -0.6869 -0.1456  0.4750
17947THY    HP135977   2.065   6.735   7.662  0.6797 -0.0588  1.6989
17947THY    CP235978   2.244   6.748   7.550 -0.3605  0.2147 -0.0285
17947THY    HP235979   2.234   6.853   7.518  0.1407  0.4977  0.1109
17947THY    HP335980   2.298   6.688   7.476 -0.4466  1.8426 -2.2333
17947THY    HP435981   2.296   6.755   7.646 -0.7667  0.3250  2.2929
17947THY    CP335982   2.112   6.540   7.587 -0.3762 -0.2292  0.5637
17947THY    HP535983   2.188   6.525   7.664 -0.7524  0.4105  1.8430
17947THY    HP635984   2.149   6.493   7.495  0.8229  0.2208  0.6005
17947THY    HP735985   2.012   6.500   7.608  0.6261 -0.1113 -2.0667
17947THY    CA335986   2.064   6.779   7.330  0.1227  0.2546 -0.5954
17947THY    HA335987   2.168   6.771   7.303  0.1591 -0.3434  1.4517
17947THY    CA435988   1.977   6.827   7.231  0.0275  0.5462  0.0752
17947THY    HA435989   2.020   6.864   7.139 -1.0729  0.3162  0.8133
17947THY    CA535990   1.840   6.827   7.246 -0.0855 -0.7836  0.1118
17947THY    CM135991   1.760   6.887   7.134  0.3511 -0.2811 -0.5173
17947THY    HM135992   1.825   6.940   7.063  0.3111  0.5826  0.7378
17947THY    HM235993   1.676   6.952   7.161 -2.5001 -1.5452 -3.3775
17947THY    HM335994   1.701   6.807   7.089 -0.4882 -0.1702  0.0252
17947THY    CA635995   1.784   6.796   7.373 -0.6833 -0.2739 -0.2830
17947THY    HA635996   1.682   6.823   7.396 -1.4686 -1.5420 -1.9589
17948THY      O35997   7.239   3.524   6.855 -0.1253 -0.3731 -0.3461
17948THY     HO35998   7.227   3.589   6.784 -1.3763  0.2328  0.1200
17948THY    CA135999   7.291   3.416   6.804 -0.3436  0.4366  0.6059
17948THY    CA236000   7.357   3.319   6.883  0.7732  0.3745  0.2100
17948THY    CP136001   7.371   3.347   7.031  0.2721 -0.3116  0.0249
17948THY    HP136002   7.292   3.417   7.059 -1.1604 -1.8540 -0.8787
17948THY    CP236003   7.508   3.399   7.080 -0.7209  0.2586  0.2746
17948THY    HP236004   7.507   3.503   7.047 -0.4834  2.4906  1.0366
17948THY    HP336005   7.590   3.342   7.035  0.3218  2.3837  0.0215
17948THY    HP436006   7.523   3.406   7.188 -0.2850  0.1285  1.5261
17948THY    CP336007   7.332   3.218   7.109 -0.5739 -0.1229  0.5065
17948THY    HP536008   7.225   3.196   7.104 -0.7398 -1.9601  1.5148
17948THY    HP636009   7.357   3.213   7.215 -1.0204  0.3311  4.4888
17948THY    HP736010   7.397   3.138   7.073 -0.9560  0.5313 -0.1030
17948THY    CA336011   7.408   3.210   6.818 -0.4186  0.6953  0.2779
17948THY    HA336012   7.471   3.136   6.868 -0.1664  1.1961  0.8182
17948THY    CA436013   7.396   3.188   6.680 -0.4084 -0.3245  0.3222
17948THY    HA436014   7.432   3.094   6.639 -1.1209  0.2393 -0.1981
17948THY    CA536015   7.312   3.269   6.610 -0.6268 -0.1880 -0.1029
17948THY    CM136016   7.272   3.247   6.469 -0.3996 -0.3104  0.4611
17948THY    HM136017   7.215   3.156   6.448 -0.1037  0.3287  0.1240
17948THY    HM236018   7.363   3.237   6.408  1.6254  2.5349  0.2227
17948THY    HM336019   7.212   3.331   6.432 -1.4897 -0.3118 -0.2982
17948THY    CA636020   7.271   3.384   6.665  0.0452 -0.7740 -0.2635
17948THY    HA636021   7.208   3.456   6.615  1.5095  0.3960  1.9638
17949THY      O36022   6.885   6.356   3.272  0.4389 -0.4019 -0.1048
17949THY     HO36023   6.859   6.275   3.225 -1.3330  0.8429 -0.3270
17949THY    CA136024   6.776   6.437   3.262  0.9451  0.3584 -0.0653
17949THY    CA236025   6.790   6.568   3.221 -0.5422  0.1649 -0.1672
17949THY    CP136026   6.929   6.621   3.192  0.2550  0.3872 -0.6426
17949THY    HP136027   7.015   6.559   3.220  2.3959 -1.8799  1.1090
17949THY    CP236028   6.954   6.758   3.263 -0.0466  0.0673  0.2263
17949THY    HP236029   7.060   6.784   3.266  0.0687  1.7751 -0.2983
17949THY    HP336030   6.919   6.747   3.367 -1.5668 -0.3047  1.2110
17949THY    HP436031   6.893   6.830   3.208 -2.8820 -0.6595 -2.5062
17949THY    CP336032   6.951   6.628   3.040 -0.3869 -0.3199 -0.8654
17949THY    HP536033   6.885   6.703   2.995 -0.2534  0.7671 -0.0709
17949THY    HP636034   6.937   6.529   2.995  0.0240 -0.5427 -0.8256
17949THY    HP736035   7.051   6.666   3.018  0.0215  1.2819 -0.9468
17949THY    CA336036   6.680   6.644   3.197  0.3225 -0.4844  0.1664
17949THY    HA336037   6.700   6.743   3.156  1.6722 -0.5079 -0.1061
17949THY    CA436038   6.554   6.598   3.229  0.1097  0.9518  0.1716
17949THY    HA436039   6.475   6.667   3.198  1.1063 -3.3893 -0.3081
17949THY    CA536040   6.536   6.466   3.273 -0.0268 -0.0933  0.1942
17949THY    CM136041   6.400   6.412   3.305 -0.0437  0.3110  0.0234
17949THY    HM136042   6.345   6.491   3.356  1.1423 -1.4637  2.0871
17949THY    HM236043   6.398   6.315   3.357  1.1563 -1.3805 -0.9648
17949THY    HM336044   6.351   6.388   3.211 -0.1203  0.6695 -1.3074
17949THY    CA636045   6.648   6.392   3.293 -0.0320  0.0881 -0.0826
17949THY    HA636046   6.635   6.292   3.334  0.7107 -1.2731 -0.7606
17950THY      O36047   3.407   3.108   4.457  0.4073 -0.1161  0.8528
17950THY     HO36048   3.466   3.032   4.439 -3.3099 -2.5339 -1.7895
17950THY    CA136049   3.286   3.060   4.431  0.3932 -0.1941  0.0091
17950THY    CA236050   3.167   3.116   4.481 -0.4800  0.6523 -0.8215
17950THY    CP136051   3.174   3.236   4.580 -0.2451  0.6632  0.7462
17950THY    HP136052   3.262   3.225   4.645  0.1946 -0.1456 -0.6954
17950THY    CP236053   3.049   3.234   4.675 -0.0650  0.4148  0.4998
17950THY    HP236054   3.045   3.130   4.709 -0.5960 -0.4619  0.2244
17950THY    HP336055   2.951   3.260   4.633  0.1616 -0.3745  0.1040
17950THY    HP436056   3.083   3.296   4.759  4.5171 -0.1637 -0.8492
17950THY    CP336057   3.188   3.374   4.500 -0.0658  0.0224 -0.1906
17950THY    HP536058   3.195   3.451   4.578 -1.0965 -0.1308  0.0755
17950THY    HP636059   3.099   3.399   4.442 -0.6834  0.6932 -0.7466
17950THY    HP736060   3.277   3.362   4.438  0.4170  0.4145  1.2591
17950THY    CA336061   3.044   3.064   4.437  0.2674 -0.3587  0.1644
17950THY    HA336062   2.955   3.119   4.468  0.6739  0.1724  0.5311
17950THY    CA436063   3.040   2.949   4.351  0.1931 -0.5030 -0.0445
17950THY    HA436064   2.944   2.910   4.315 -1.7449  2.6352  1.4609
17950THY    CA536065   3.156   2.890   4.305  0.2687 -0.5260  0.4602
17950THY    CM136066   3.147   2.773   4.208  0.2787  0.4583 -0.6055
17950THY    HM136067   3.065   2.708   4.243 -1.6117  1.1389  1.9818
17950THY    HM236068   3.244   2.722   4.205  0.0598 -0.6896 -0.9932
17950THY    HM336069   3.131   2.805   4.105 -1.0768  1.1260  1.0128
17950THY    CA636070   3.280   2.950   4.339 -0.3729  0.0464  0.1396
17950THY    HA636071   3.370   2.916   4.291 -0.1382 -0.1191  0.9672
17951THY      O36072   0.900   6.123   4.752 -0.4253  0.5229  0.3984
17951THY     HO36073   0.907   6.124   4.655  0.0797  0.5649  0.7286
17951THY    CA136074   0.836   6.241   4.780 -0.1261 -0.0087  1.0323
17951THY    CA236075   0.778   6.266   4.911 -0.0444 -0.3572 -0.0772
17951THY    CP136076   0.808   6.179   5.034 -0.0713  0.3666  0.5664
17951THY    HP136077   0.847   6.082   5.000  2.2305  0.6041  1.3378
17951THY    CP236078   0.690   6.153   5.127  0.0944 -0.4246  0.3848
17951THY    HP236079   0.671   6.242   5.188  1.6870 -0.0776  0.5211
17951THY    HP336080   0.709   6.069   5.194  0.8761  0.2630  1.0849
17951THY    HP436081   0.606   6.127   5.062  1.3528 -1.0903 -2.3348
17951THY    CP336082   0.926   6.244   5.104  0.2164 -0.0667 -0.2917
17951THY    HP536083   1.003   6.259   5.028 -2.8604 -3.6267 -0.8802
17951THY    HP636084   0.951   6.176   5.186  0.3768  1.1151  1.1432
17951THY    HP736085   0.895   6.344   5.135  0.6830  0.2333 -0.2393
17951THY    CA336086   0.720   6.390   4.935 -0.4336 -0.0676  0.3663
17951THY    HA336087   0.663   6.428   5.019 -1.5086 -1.6019  2.4244
17951THY    CA436088   0.720   6.476   4.827 -0.2003 -0.0554  0.3099
17951THY    HA436089   0.677   6.574   4.842  0.0708 -1.9182  0.7452
17951THY    CA536090   0.765   6.444   4.703 -0.2898  0.0886 -0.2826
17951THY    CM136091   0.766   6.549   4.594 -0.0603 -0.7037 -0.3141
17951THY    HM136092   0.668   6.559   4.545 -0.0494 -0.3143  2.7336
17951THY    HM236093   0.834   6.539   4.509  0.3190 -0.3427 -0.8365
17951THY    HM336094   0.772   6.649   4.640  0.9644 -0.5970 -0.4220
17951THY    CA636095   0.824   6.327   4.679 -0.4309  0.1886  1.0233
17951THY    HA636096   0.866   6.302   4.581  2.2252  1.3105  0.7877
17952THY      O36097   1.354   2.844   1.483  0.2327  0.2258  0.1393
17952THY     HO36098   1.271   2.823   1.439  0.8221 -1.0131  0.3245
17952THY    CA136099   1.309   2.851   1.608 -0.3174 -0.1854 -0.2831
17952THY    CA236100   1.388   2.813   1.717  0.8896  0.7170 -1.2650
17952THY    CP136101   1.524   2.753   1.689  0.1491  0.2686  0.0068
17952THY    HP136102   1.553   2.743   1.584 -1.8016 -0.5963  2.4123
17952THY    CP236103   1.519   2.606   1.734 -0.1228 -0.1742  0.2358
17952THY    HP236104   1.619   2.561   1.728 -0.5081 -1.6920 -0.4636
17952THY    HP336105   1.444   2.553   1.675 -1.5093  1.3666  0.3934
17952THY    HP436106   1.499   2.605   1.842  1.7049  0.2002 -1.3070
17952THY    CP336107   1.645   2.829   1.767  0.0411  0.0237  0.1433
17952THY    HP536108   1.739   2.773   1.755 -0.9079  1.3352 -1.8196
17952THY    HP636109   1.614   2.833   1.872 -3.9184 -0.8688 -2.3350
17952THY    HP736110   1.639   2.932   1.730 -1.3943 -0.0987  0.0254
17952THY    CA336111   1.333   2.827   1.845 -0.2915 -0.7475  0.7572
17952THY    HA336112   1.384   2.791   1.934 -1.3496 -0.9943 -1.5414
17952THY    CA436113   1.207   2.889   1.861  0.5337 -1.1394 -0.6508
17952THY    HA436114   1.159   2.889   1.958  0.8109 -0.9979 -1.0593
17952THY    CA536115   1.137   2.931   1.750 -0.4639  0.4130 -0.0617
17952THY    CM136116   0.998   2.992   1.766 -0.3415 -0.6073  0.2553
17952THY    HM136117   0.924   2.917   1.737 -0.4516  0.1935  0.0527
17952THY    HM236118   0.981   3.074   1.694  1.8982 -0.3255  1.0392
17952THY    HM336119   0.977   3.021   1.869  2.1461  0.0648 -0.0739
17952THY    CA636120   1.185   2.912   1.625 -0.1356  0.2128  0.4669
17952THY    HA636121   1.126   2.939   1.538  2.7683 -1.2182  2.8612
17953THY      O36122   7.872   4.608   4.849 -0.2904 -0.0288  0.2234
17953THY     HO36123   7.906   4.517   4.860  2.7321  2.8261  1.5076
17953THY    CA136124   7.776   4.600   4.760 -0.1643 -0.0369 -0.3863
17953THY    CA236125   7.702   4.715   4.731 -0.6014  0.2466 -0.2243
17953THY    CP136126   7.737   4.853   4.808 -0.1143  0.0187 -0.8687
17953THY    HP136127   7.839   4.856   4.848 -0.1932  0.1632  0.7085
17953THY    CP236128   7.657   4.871   4.930  0.1957 -0.5427  0.1373
17953THY    HP236129   7.696   4.952   4.994  1.0565 -0.3917 -0.3927
17953THY    HP336130   7.631   4.779   4.984 -0.0239 -2.7447 -1.1542
17953THY    HP436131   7.555   4.894   4.896  0.8064 -1.6703  1.3489
17953THY    CP336132   7.724   4.973   4.721  0.0281  0.4176 -0.2522
17953THY    HP536133   7.792   4.961   4.636  0.5990  1.0684 -2.1109
17953THY    HP636134   7.764   5.058   4.777 -0.4567 -0.3655  0.5012
17953THY    HP736135   7.621   4.998   4.694  0.0759 -0.1339 -0.6278
17953THY    CA336136   7.589   4.705   4.648  1.6273  0.0256  0.3193
17953THY    HA336137   7.530   4.795   4.634 -0.1168  1.7859 -0.4584
17953THY    CA436138   7.565   4.587   4.574 -0.1271 -0.5753  0.5021
17953THY    HA436139   7.482   4.584   4.504 -0.1581 -0.5065 -0.4415
17953THY    CA536140   7.636   4.469   4.606  0.1328 -0.4544  0.1632
17953THY    CM136141   7.609   4.342   4.528 -0.5055 -0.5678 -0.4242
17953THY    HM136142   7.515   4.295   4.561  0.4306  0.1508 -1.8697
17953THY    HM236143   7.692   4.274   4.550  0.6925 -0.0964  1.1251
17953THY    HM336144   7.614   4.347   4.419 -1.0693 -0.6424 -1.3237
17953THY    CA636145   7.746   4.472   4.694 -0.2939 -0.9197 -0.4449
17953THY    HA636146   7.814   4.387   4.690  0.8027 -1.0412  0.4030
17954THY      O36147   1.389   4.003   6.362  0.7912 -0.3307 -0.1280
17954THY     HO36148   1.343   4.047   6.435 -1.3886 -0.6128 -1.7477
17954THY    CA136149   1.493   3.952   6.429 -0.2343 -0.5853  0.8635
17954THY    CA236150   1.591   3.876   6.366 -0.0797  0.2444 -0.1861
17954THY    CP136151   1.599   3.867   6.214  0.1359  0.1497  1.1548
17954THY    HP136152   1.505   3.900   6.167  0.0198 -1.0970 -0.7778
17954THY    CP236153   1.627   3.716   6.168  0.7425  0.4612 -0.1062
17954THY    HP236154   1.733   3.693   6.152  0.1033 -1.1069 -2.3171
17954THY    HP336155   1.593   3.696   6.065  1.8503  0.0971 -0.1524
17954THY    HP436156   1.576   3.652   6.241 -1.0500  1.3215  2.1675
17954THY    CP336157   1.709   3.956   6.146 -1.1511 -0.5220  0.2039
17954THY    HP536158   1.694   3.949   6.038 -1.2882 -0.5347  0.6702
17954THY    HP636159   1.811   3.929   6.176 -1.9900  1.6112 -0.8563
17954THY    HP736160   1.695   4.059   6.181 -0.2188  3.1082 -0.7635
17954THY    CA336161   1.693   3.812   6.441 -0.6714  0.1419  0.1004
17954THY    HA336162   1.773   3.755   6.394 -1.8231  0.3796 -1.8078
17954THY    CA436163   1.698   3.826   6.577  0.5754 -0.1287  0.2355
17954THY    HA436164   1.776   3.780   6.637 -0.6803  0.6329 -0.9996
17954THY    CA536165   1.605   3.917   6.639  0.2644 -0.7830  0.4762
17954THY    CM136166   1.618   3.955   6.785  0.5465  0.0963  0.7882
17954THY    HM136167   1.599   3.860   6.835  1.0635 -2.0885 -0.5214
17954THY    HM236168   1.544   4.033   6.807  0.1450 -0.7632  0.6574
17954THY    HM336169   1.716   3.996   6.812  0.4017  0.5152  0.8712
17954THY    CA636170   1.504   3.974   6.564 -0.6502 -0.1170 -0.1213
17954THY    HA636171   1.428   4.036   6.612 -0.1502 -0.0042  0.4084
17955THY      O36172   3.001   0.692   5.982 -0.5091  0.0802  0.2100
17955THY     HO36173   3.042   0.644   5.907 -1.1021  0.5904 -1.1428
17955THY    CA136174   3.100   0.777   6.031  0.0707  0.7088 -0.5783
17955THY    CA236175   3.073   0.841   6.157 -0.3554 -0.1458 -0.9841
17955THY    CP136176   2.942   0.824   6.237  0.6194  0.0274 -0.0033
17955THY    HP136177   2.870   0.762   6.182  2.1995 -1.3814 -0.6644
17955THY    CP236178   2.877   0.961   6.279 -0.5625  0.2573  0.2673
17955THY    HP236179   2.860   1.023   6.190 -0.8687  0.2633  0.1920
17955THY    HP336180   2.950   1.007   6.347  1.2289 -2.0217  1.0365
17955THY    HP436181   2.789   0.962   6.343 -1.0158 -0.3613  0.8927
17955THY    CP336182   2.952   0.747   6.370 -0.3429 -0.4344  0.2506
17955THY    HP536183   2.979   0.818   6.450 -0.2196  0.3916 -0.7129
17955THY    HP636184   3.022   0.663   6.362  0.6516 -0.1761  1.0174
17955THY    HP736185   2.853   0.707   6.392 -0.4725 -0.8287  0.3548
17955THY    CA336186   3.174   0.923   6.205  0.1844  0.3356 -0.1017
17955THY    HA336187   3.166   0.954   6.309 -1.1393 -0.4091  2.2526
17955THY    CA436188   3.287   0.954   6.124  0.2626  0.8868 -0.5450
17955THY    HA436189   3.373   1.009   6.162  1.8631  0.1447 -2.4217
17955THY    CA536190   3.300   0.909   5.990 -0.0237  0.3361  0.6682
17955THY    CM136191   3.414   0.926   5.902 -0.4778  0.0700 -0.3658
17955THY    HM136192   3.458   0.833   5.863  0.9528  0.6896  0.0168
17955THY    HM236193   3.496   0.977   5.955 -2.9811  3.3354  0.6501
17955THY    HM336194   3.393   1.001   5.826 -0.4865  0.1380 -0.2990
17955THY    CA636195   3.205   0.815   5.946  0.6565  0.7598  0.2658
17955THY    HA636196   3.209   0.777   5.844 -1.4189  1.3180 -1.7248
17956THY      O36197   6.156   7.374   4.889  0.3625 -0.4963  0.4749
17956THY     HO36198   6.084   7.422   4.846 -1.9605  2.2568 -0.2684
17956THY    CA136199   6.257   7.458   4.887 -0.9432 -0.1816 -0.0616
17956THY    CA236200   6.376   7.435   4.961 -0.0986 -0.5676 -0.0638
17956THY    CP136201   6.409   7.297   5.019 -0.7507  0.3593 -0.0340
17956THY    HP136202   6.329   7.225   4.996  1.9807  1.4015 -3.7224
17956THY    CP236203   6.439   7.292   5.164 -0.0663  0.4739  0.1342
17956THY    HP236204   6.530   7.339   5.204 -0.4312 -0.1435  1.4057
17956THY    HP336205   6.433   7.186   5.190  0.6724  2.4506  0.5251
17956THY    HP436206   6.353   7.347   5.206  0.6045  1.0681  0.7519
17956THY    CP336207   6.535   7.238   4.958 -0.7968  0.1615 -0.0972
17956THY    HP536208   6.539   7.274   4.855  2.1132  0.2648  0.0999
17956THY    HP636209   6.530   7.129   4.964 -0.6281  0.3864 -0.0931
17956THY    HP736210   6.623   7.277   5.009 -1.0899 -0.1230  0.9797
17956THY    CA336211   6.476   7.531   4.958  0.6854 -0.0920  0.9684
17956THY    HA336212   6.574   7.515   5.001 -0.1338  1.0991 -1.3761
17956THY    CA436213   6.466   7.656   4.895 -0.6362 -0.1535  0.9487
17956THY    HA436214   6.545   7.730   4.895 -0.3058  0.7497  0.6121
17956THY    CA536215   6.350   7.678   4.819 -0.0635 -0.4164 -0.3052
17956THY    CM136216   6.335   7.800   4.731 -0.7787  0.1217 -0.1521
17956THY    HM136217   6.232   7.820   4.698  0.0726 -1.1217  2.7729
17956THY    HM236218   6.397   7.787   4.641 -0.3209 -0.1250  2.9559
17956THY    HM336219   6.370   7.897   4.768 -0.1367 -2.7841  0.8335
17956THY    CA636220   6.251   7.579   4.813  0.1627  0.0570 -0.1415
17956THY    HA636221   6.167   7.599   4.746  1.4045 -1.4245  0.3236
17957THY      O36222   6.850   2.743   5.328 -0.3755  0.2272 -0.4339
17957THY     HO36223   6.898   2.759   5.411  0.2056  0.0901 -1.3671
17957THY    CA136224   6.905   2.629   5.272 -0.6214 -0.1985 -0.2314
17957THY    CA236225   6.881   2.585   5.138  0.1618  0.3699 -0.5875
17957THY    CP136226   6.800   2.670   5.027  0.5395  0.0072 -0.0311
17957THY    HP136227   6.780   2.770   5.067  1.4901 -0.2963  0.2852
17957THY    CP236228   6.663   2.623   5.023 -0.2999 -0.4107  0.1584
17957THY    HP236229   6.665   2.519   4.988 -0.9872 -0.4818  0.1643
17957THY    HP336230   6.602   2.683   4.955 -0.5581 -1.2198 -0.9835
17957THY    HP436231   6.629   2.633   5.127  0.1946 -0.2029 -0.2452
17957THY    CP336232   6.864   2.696   4.893 -0.5291  0.2647 -0.3660
17957THY    HP536233   6.954   2.757   4.907  0.1223 -3.2180 -0.3236
17957THY    HP636234   6.799   2.762   4.835 -0.4773  2.5513  1.8455
17957THY    HP736235   6.895   2.607   4.836 -0.1078 -0.7189  0.4030
17957THY    CA336236   6.928   2.461   5.094 -0.4078 -0.1264  0.2256
17957THY    HA336237   6.912   2.426   4.993  2.5101 -0.4057 -0.5561
17957THY    CA436238   6.991   2.380   5.186  0.6520 -0.3060 -0.5155
17957THY    HA436239   7.042   2.290   5.154 -1.4598 -0.1479 -1.8364
17957THY    CA536240   7.017   2.421   5.318  0.1756 -0.3884  0.6476
17957THY    CM136241   7.079   2.342   5.429 -0.6481  0.2284  0.6091
17957THY    HM136242   7.004   2.346   5.509 -0.3079  0.5092  1.8080
17957THY    HM236243   7.167   2.385   5.479 -1.4192  1.0224  1.3095
17957THY    HM336244   7.093   2.240   5.392 -0.6834  1.7805  0.0080
17957THY    CA636245   6.967   2.542   5.359 -0.6436 -0.7518 -0.0263
17957THY    HA636246   6.985   2.573   5.462  0.1452 -1.3763  1.7030
17958THY      O36247   6.835   8.832   2.374 -0.0617 -0.1173 -0.2905
17958THY     HO36248   6.859   8.921   2.342 -0.6359 -1.6249 -0.6489
17958THY    CA136249   6.762   8.790   2.276  0.0221  0.3159  0.1366
17958THY    CA236250   6.774   8.655   2.240  0.7781  0.1864  0.2035
17958THY    CP136251   6.857   8.548   2.308  0.4112  0.4031  0.2966
17958THY    HP136252   6.904   8.589   2.398  1.9194  0.4138 -1.3000
17958THY    CP236253   6.977   8.507   2.219 -0.1599  0.2319  0.4316
17958THY    HP236254   6.948   8.469   2.121  1.0019  0.6170 -1.6500
17958THY    HP336255   7.039   8.432   2.271 -0.4636 -0.3242 -0.2155
17958THY    HP436256   7.031   8.598   2.192  0.2582 -1.9128 -0.3983
17958THY    CP336257   6.792   8.419   2.350  0.4327 -0.9673  0.4647
17958THY    HP536258   6.694   8.443   2.391 -0.3787 -2.9827  0.7686
17958THY    HP636259   6.848   8.375   2.434 -2.2139 -0.4917 -2.3135
17958THY    HP736260   6.778   8.341   2.274  0.1084 -0.5168  0.0737
17958THY    CA336261   6.708   8.613   2.126  0.3969 -0.8089  0.3427
17958THY    HA336262   6.703   8.507   2.102 -1.0852 -0.2954  0.2680
17958THY    CA436263   6.640   8.703   2.055  0.5535 -0.4579  0.0728
17958THY    HA436264   6.584   8.664   1.970  1.1875 -0.8930  0.0954
17958THY    CA536265   6.618   8.835   2.090  0.1698 -0.4693 -0.2659
17958THY    CM136266   6.514   8.915   2.026 -0.5525 -0.2446  0.9674
17958THY    HM136267   6.543   8.918   1.920 -1.5319 -0.6262 -1.1999
17958THY    HM236268   6.507   9.018   2.063 -0.0097  0.9737  0.5887
17958THY    HM336269   6.419   8.866   2.049 -0.2093  1.5386  1.0697
17958THY    CA636270   6.689   8.877   2.203  0.3612  0.7812  0.8925
17958THY    HA636271   6.679   8.979   2.239 -0.0447  2.4586  0.2960
17959THY      O36272   7.412   5.706   4.598  0.4225 -0.5380 -0.0617
17959THY     HO36273   7.406   5.694   4.695 -1.7998 -0.7516 -1.2174
17959THY    CA136274   7.543   5.707   4.562 -0.6026  0.0720 -0.9414
17959THY    CA236275   7.578   5.691   4.431 -0.6537  0.7582 -0.0458
17959THY    CP136276   7.471   5.680   4.320 -0.6488  0.0355  0.7762
17959THY    HP136277   7.369   5.678   4.362 -0.3791  1.0504 -3.8437
17959THY    CP236278   7.492   5.553   4.237  0.3639  1.0007 -0.7431
17959THY    HP236279   7.484   5.454   4.284 -4.2421 -0.7472 -1.4522
17959THY    HP336280   7.585   5.552   4.180  0.4491  0.8561  2.8119
17959THY    HP436281   7.423   5.542   4.153 -0.1828  1.4134 -0.5070
17959THY    CP336282   7.483   5.802   4.236  0.4384  0.2357 -0.1048
17959THY    HP536283   7.581   5.803   4.186  0.7786  0.7558 -2.3411
17959THY    HP636284   7.454   5.889   4.296 -0.6900  0.2696 -0.4851
17959THY    HP736285   7.402   5.793   4.163  0.2701  0.5274 -1.0656
17959THY    CA336286   7.718   5.671   4.403 -0.5795 -0.0309  0.0097
17959THY    HA336287   7.751   5.671   4.299  2.6743  0.8094  3.0111
17959THY    CA436288   7.812   5.671   4.506 -0.2306 -0.7113  0.2141
17959THY    HA436289   7.918   5.665   4.484 -0.2396 -0.9168  0.7561
17959THY    CA536290   7.771   5.695   4.639 -0.8175  0.2372  0.0824
17959THY    CM136291   7.872   5.704   4.749 -0.3226  0.1535  0.5808
17959THY    HM136292   7.831   5.777   4.820 -2.5178 -0.4197 -0.0233
17959THY    HM236293   7.968   5.730   4.702  0.0546 -0.5323 -1.8575
17959THY    HM336294   7.877   5.604   4.794  3.6320 -1.9794 -0.3873
17959THY    CA636295   7.633   5.703   4.664 -0.5616  0.9228 -0.0037
17959THY    HA636296   7.603   5.735   4.763 -1.0400  0.3731  1.3045
17960THY      O36297   3.064   6.601   6.827  0.3101 -0.0327  0.3440
17960THY     HO36298   3.102   6.645   6.749  0.7334 -0.9074 -1.4868
17960THY    CA136299   2.999   6.494   6.778 -0.0102  0.5659 -0.0439
17960THY    CA236300   2.877   6.453   6.817  0.4326 -0.5219  0.5390
17960THY    CP136301   2.799   6.531   6.929  0.3321 -0.2222 -0.8731
17960THY    HP136302   2.858   6.603   6.986 -1.8303  1.2728 -0.1989
17960THY    CP236303   2.767   6.434   7.037 -0.9406  0.3653  0.8042
17960THY    HP236304   2.682   6.367   7.018  1.5125 -1.1968 -2.0907
17960THY    HP336305   2.755   6.486   7.134 -0.3781  0.4365  0.8076
17960THY    HP436306   2.857   6.376   7.060 -1.3585 -0.3875 -0.1751
17960THY    CP336307   2.679   6.615   6.862  0.0672 -0.5896 -0.3232
17960THY    HP536308   2.710   6.644   6.761 -0.2230 -0.6957 -0.3762
17960THY    HP636309   2.641   6.700   6.919  2.5300  0.8244 -0.0830
17960THY    HP736310   2.587   6.556   6.862  0.9162  1.6414 -1.7875
17960THY    CA336311   2.823   6.328   6.769 -0.0746 -0.3971  0.0454
17960THY    HA336312   2.724   6.299   6.803 -1.0898 -4.5242 -2.1252
17960THY    CA436313   2.882   6.255   6.669  0.1601 -0.0581  0.5931
17960THY    HA436314   2.825   6.176   6.621 -0.6681 -1.4280  1.9571
17960THY    CA536315   3.004   6.308   6.625  0.4312 -0.1706  0.8382
17960THY    CM136316   3.064   6.243   6.510 -0.8769  0.5912 -0.7566
17960THY    HM136317   3.051   6.135   6.524 -0.7708 -0.1586 -0.8708
17960THY    HM236318   3.172   6.257   6.498 -0.9462 -2.1589 -1.9852
17960THY    HM336319   3.006   6.282   6.425 -0.6888  0.7238 -0.1698
17960THY    CA636320   3.063   6.424   6.679 -0.1848  0.0737 -0.0221
17960THY    HA636321   3.148   6.473   6.634 -1.5942  1.0970  3.7014
17961THY      O36322   2.892   2.649   6.074 -0.2740 -1.1283  0.7214
17961THY     HO36323   2.841   2.707   6.133  1.2605  0.4926  0.5005
17961THY    CA136324   2.814   2.543   6.027 -0.3940  0.3749 -0.3033
17961THY    CA236325   2.870   2.420   5.982 -0.3004  0.3559 -0.6214
17961THY    CP136326   3.016   2.401   5.995 -0.9361 -0.1349  0.3950
17961THY    HP136327   3.052   2.440   6.091  0.0277 -0.6948  0.9204
17961THY    CP236328   3.093   2.488   5.890  0.0359  0.1077 -0.9766
17961THY    HP236329   3.041   2.471   5.795  0.8056  0.0686 -3.4645
17961THY    HP336330   3.198   2.458   5.887  0.4874  2.2164  0.2101
17961THY    HP436331   3.088   2.594   5.918  1.4766 -1.5381 -0.4299
17961THY    CP336332   3.066   2.250   5.981 -0.1330  0.0167  0.0001
17961THY    HP536333   3.021   2.176   6.048  0.6412 -0.2485 -0.7278
17961THY    HP636334   3.171   2.241   6.011  0.1887 -0.7934  0.8774
17961THY    HP736335   3.048   2.217   5.878  1.0578  0.5096 -2.4185
17961THY    CA336336   2.786   2.323   5.921 -0.3591 -0.3437  0.0645
17961THY    HA336337   2.823   2.231   5.877 -0.9650 -0.3939 -0.1594
17961THY    CA436338   2.651   2.342   5.920  0.3587 -0.1965 -0.3559
17961THY    HA436339   2.579   2.269   5.884 -2.2890  2.2699  0.8770
17961THY    CA536340   2.597   2.461   5.963 -0.0107  0.0319 -0.8822
17961THY    CM136341   2.451   2.485   5.962 -0.2640  0.2130  0.1336
17961THY    HM136342   2.403   2.466   6.059 -0.6807 -0.2850 -1.5041
17961THY    HM236343   2.395   2.426   5.889 -0.6227  2.0068 -1.8546
17961THY    HM336344   2.440   2.582   5.913  0.7985 -1.8570 -0.7254
17961THY    CA636345   2.680   2.570   6.016  0.6419 -0.2530 -0.5258
17961THY    HA636346   2.642   2.668   6.040 -1.3419 -1.8502 -0.8300
17962THY      O36347   8.065   7.797   3.538  0.1287 -0.1880  0.5534
17962THY     HO36348   7.985   7.846   3.513 -1.2191 -0.6921 -1.7533
17962THY    CA136349   8.137   7.773   3.425 -0.4136  0.4765 -0.3717
17962THY    CA236350   8.216   7.657   3.416  1.3072 -0.2902  0.4233
17962THY    CP136351   8.227   7.560   3.529 -0.0383 -0.2518  0.5114
17962THY    HP136352   8.190   7.608   3.620 -1.5954 -0.2104 -0.6632
17962THY    CP236353   8.375   7.525   3.551  0.0975  0.4732  0.1944
17962THY    HP236354   8.428   7.621   3.556 -0.3471 -1.2341  0.5585
17962THY    HP336355   8.418   7.470   3.467 -2.2763 -1.1753  0.6862
17962THY    HP436356   8.391   7.471   3.645 -0.2993 -0.1908 -1.1167
17962THY    CP336357   8.150   7.429   3.507  0.3877 -0.8654  0.2637
17962THY    HP536358   8.048   7.455   3.479  0.9168 -3.4870 -0.1963
17962THY    HP636359   8.141   7.356   3.588  0.7107  0.2999  1.4743
17962THY    HP736360   8.178   7.371   3.418 -1.1931 -0.3036 -1.4609
17962THY    CA336361   8.281   7.628   3.288 -0.2109 -0.5406  0.4584
17962THY    HA336362   8.348   7.543   3.282  1.9047  2.8711  1.6490
17962THY    CA436363   8.254   7.714   3.177 -0.1642 -0.4649 -0.3516
17962THY    HA436364   8.299   7.686   3.082 -0.2546 -0.4180 -0.6584
17962THY    CA536365   8.181   7.831   3.198 -0.1431 -0.0621  0.2380
17962THY    CM136366   8.156   7.925   3.079  0.4438  0.8075 -0.2166
17962THY    HM136367   8.093   7.871   3.007  0.2973  0.7233  0.0660
17962THY    HM236368   8.247   7.962   3.030 -0.0159  0.2588  0.2136
17962THY    HM336369   8.104   8.014   3.114 -0.3990  2.5208 -1.3423
17962THY    CA636370   8.123   7.862   3.322  0.6443 -0.0678 -0.3574
17962THY    HA636371   8.064   7.951   3.341 -2.0691 -0.4028 -1.9690
17963THY      O36372   8.256   8.408   5.903 -0.4677  0.4359  0.4681
17963THY     HO36373   8.221   8.394   5.813  1.4040 -0.6608  2.1326
17963THY    CA136374   8.205   8.528   5.942  0.5245  0.1979  0.3105
17963THY    CA236375   8.277   8.601   6.040 -0.1737  0.4406 -0.7703
17963THY    CP136376   8.415   8.574   6.093  0.4106 -0.3290  0.5211
17963THY    HP136377   8.435   8.474   6.054 -2.4209 -1.0329  0.1675
17963THY    CP236378   8.424   8.553   6.247  0.6053 -0.0257 -0.7164
17963THY    HP236379   8.341   8.497   6.289  1.4523  2.1517 -0.4305
17963THY    HP336380   8.416   8.655   6.286  0.6707 -1.4073 -0.1604
17963THY    HP436381   8.516   8.505   6.282  1.8885  0.7478  2.0745
17963THY    CP336382   8.526   8.677   6.057  0.4364  0.1390  0.2601
17963THY    HP536383   8.622   8.641   6.096 -0.6156  2.5953 -0.1092
17963THY    HP636384   8.510   8.778   6.097 -2.3666 -3.8193  1.6341
17963THY    HP736385   8.548   8.676   5.950  0.7022  0.0979  3.2428
17963THY    CA336386   8.218   8.719   6.089 -1.1508  0.1216 -0.1196
17963THY    HA336387   8.260   8.778   6.169  1.4040 -1.2980  0.1282
17963THY    CA436388   8.093   8.754   6.043  0.1080 -0.1970  0.2227
17963THY    HA436389   8.048   8.843   6.087  0.7758  0.9285  0.0315
17963THY    CA536390   8.023   8.680   5.957  0.4135  0.3113 -0.4760
17963THY    CM136391   7.883   8.717   5.907  0.5231  0.0553 -0.1226
17963THY    HM136392   7.847   8.813   5.947  1.3245 -1.4110  0.8231
17963THY    HM236393   7.823   8.632   5.942  0.1514  0.1914  0.1917
17963THY    HM336394   7.874   8.715   5.798 -0.7437  0.1463 -2.3752
17963THY    CA636395   8.078   8.566   5.905 -0.5209 -0.0743 -0.7547
17963THY    HA636396   8.030   8.497   5.836  0.9131 -0.1581 -1.7205
17964THY      O36397   8.851   6.217   6.665  0.0592 -0.0815 -0.1550
17964THY     HO36398   8.900   6.134   6.680  0.3567  0.3548  0.0945
17964THY    CA136399   8.920   6.293   6.580  0.4167 -0.1533 -0.3090
17964THY    CA236400   8.862   6.409   6.522  0.2596 -0.2065  0.1434
17964THY    CP136401   8.716   6.444   6.560  0.2350  0.2500 -0.0866
17964THY    HP136402   8.671   6.367   6.625 -3.0334  0.4892  1.8261
17964THY    CP236403   8.619   6.462   6.435 -0.6079  0.0312  0.8849
17964THY    HP236404   8.616   6.367   6.380 -0.9164  1.2219  0.1956
17964THY    HP336405   8.647   6.538   6.361 -0.2322 -1.8246 -0.9779
17964THY    HP436406   8.515   6.470   6.469 -0.0383  1.5962  2.1255
17964THY    CP336407   8.710   6.579   6.647  1.0709 -0.0259 -0.4812
17964THY    HP536408   8.697   6.671   6.588  0.1696  3.5321  1.8814
17964THY    HP636409   8.799   6.585   6.710  0.4392  1.1747 -2.6169
17964THY    HP736410   8.622   6.570   6.712  1.6043  1.0089  1.2712
17964THY    CA336411   8.927   6.486   6.430  0.4001 -0.2266  0.0720
17964THY    HA336412   8.883   6.582   6.402  0.6803  0.6422  0.4614
17964THY    CA436413   9.054   6.439   6.387  0.2756  0.3200 -0.4320
17964THY    HA436414   9.110   6.501   6.319 -0.0864 -0.5142 -1.0007
17964THY    CA536415   9.105   6.323   6.437 -0.4377  0.8206 -0.3297
17964THY    CM136416   9.245   6.285   6.401 -0.3722  0.3947  0.6927
17964THY    HM136417   9.279   6.333   6.308  0.1928  0.1577 -0.1323
17964THY    HM236418   9.253   6.177   6.385 -0.2837  1.2131  0.5739
17964THY    HM336419   9.323   6.310   6.474 -0.7491  0.7414  0.8689
17964THY    CA636420   9.042   6.248   6.536  0.0541 -0.3133 -0.0306
17964THY    HA636421   9.086   6.168   6.594 -1.8692 -0.8568 -1.5486
17965THY      O36422   6.620   3.461   7.658  0.0090 -0.0594  0.0068
17965THY     HO36423   6.695   3.479   7.718 -0.8886  1.1807 -0.1979
17965THY    CA136424   6.511   3.494   7.730 -0.0114 -0.3881 -0.0324
17965THY    CA236425   6.388   3.533   7.665 -0.1486  0.2705 -0.3382
17965THY    CP136426   6.364   3.524   7.517  1.0349 -0.4615 -0.5133
17965THY    HP136427   6.443   3.472   7.463  0.3956 -0.4282 -1.5365
17965THY    CP236428   6.348   3.664   7.453 -0.4281 -0.3641 -0.2677
17965THY    HP236429   6.296   3.729   7.523  0.8016  0.3261  0.0090
17965THY    HP336430   6.306   3.653   7.352 -1.4169 -0.0579  0.5598
17965THY    HP436431   6.446   3.711   7.436  0.6727  0.9705 -1.9235
17965THY    CP336432   6.250   3.427   7.488 -0.4300 -0.4339  0.9053
17965THY    HP536433   6.266   3.342   7.555  1.7517 -1.2158  0.6250
17965THY    HP636434   6.254   3.382   7.388 -0.6645  0.2883 -0.7843
17965THY    HP736435   6.155   3.477   7.507  0.0033  1.6770  1.0102
17965THY    CA336436   6.284   3.576   7.756  0.0371  0.1677  0.6219
17965THY    HA336437   6.183   3.582   7.717 -0.5191  1.7373  2.3398
17965THY    CA436438   6.306   3.595   7.886  0.0102 -0.3313 -0.5696
17965THY    HA436439   6.228   3.629   7.954  0.8382 -1.0697  3.1962
17965THY    CA536440   6.417   3.548   7.943 -0.1325  0.4892 -0.0190
17965THY    CM136441   6.449   3.561   8.089  0.2837 -0.0714  0.3613
17965THY    HM136442   6.442   3.459   8.127 -0.6012  1.3837  0.9386
17965THY    HM236443   6.373   3.629   8.130 -1.2581 -1.9899 -0.0961
17965THY    HM336444   6.550   3.600   8.103 -0.1790  1.2816  1.1489
17965THY    CA636445   6.528   3.513   7.870  0.2196 -0.8025 -0.3277
17965THY    HA636446   6.627   3.501   7.914  0.9057 -1.0964  3.1556
17966THY      O36447   9.129   5.841   4.088 -0.8227 -0.4854  0.1092
17966THY     HO36448   9.209   5.893   4.110 -0.0693 -1.4908 -0.5897
17966THY    CA136449   9.103   5.884   3.965 -0.9183 -0.5362 -0.4824
17966THY    CA236450   9.051   5.789   3.862 -0.4799  0.0358 -0.6376
17966THY    CP136451   9.022   5.645   3.893 -0.4883 -0.2181 -0.3703
17966THY    HP136452   9.034   5.614   3.998 -1.5767 -0.5328 -1.9978
17966THY    CP236453   9.106   5.558   3.809 -0.0758  0.2380 -0.3764
17966THY    HP236454   9.087   5.595   3.708 -1.2609  0.2289 -0.9857
17966THY    HP336455   9.075   5.454   3.820 -0.1606 -0.6527 -0.4550
17966THY    HP436456   9.210   5.578   3.837 -0.2087 -1.0109  2.6629
17966THY    CP336457   8.872   5.612   3.868  0.1941 -0.4192 -0.2521
17966THY    HP536458   8.808   5.693   3.904  3.6082 -1.1562  3.0908
17966THY    HP636459   8.837   5.518   3.914  0.4620 -0.5347 -0.4112
17966THY    HP736460   8.850   5.597   3.762 -1.0736 -0.2710  0.4549
17966THY    CA336461   9.033   5.843   3.731  0.0820  0.3621  0.4096
17966THY    HA336462   8.981   5.784   3.656  0.3598  0.6794 -0.2346
17966THY    CA436463   9.058   5.987   3.704 -0.1332  0.3287 -0.0260
17966THY    HA436464   9.037   6.028   3.606  2.8571 -0.9013 -1.1743
17966THY    CA536465   9.098   6.067   3.808 -0.3713  0.0767  0.2125
17966THY    CM136466   9.109   6.215   3.780  0.5687  1.0076  0.6997
17966THY    HM136467   9.198   6.241   3.721 -0.4971 -0.1203  1.9031
17966THY    HM236468   9.110   6.273   3.873  1.1180  0.9959  0.7160
17966THY    HM336469   9.017   6.254   3.735  0.3990 -0.1413 -0.9145
17966THY    CA636470   9.122   6.015   3.939  0.0958  0.1889  0.4216
17966THY    HA636471   9.144   6.086   4.019 -0.9894 -1.3480  2.6048
17967THY      O36472   9.065   6.767   2.015  0.0289  0.2485 -0.0130
17967THY     HO36473   9.143   6.809   1.976 -1.8198 -3.0842  0.7354
17967THY    CA136474   9.081   6.759   2.150 -0.8298  0.4138 -0.3101
17967THY    CA236475   8.987   6.697   2.229  0.1966  0.1902 -0.3308
17967THY    CP136476   8.852   6.652   2.163 -0.4581  0.4315  0.0724
17967THY    HP136477   8.891   6.590   2.081 -0.1436  1.5460 -1.2415
17967THY    CP236478   8.757   6.763   2.120  0.0250 -0.0746  0.5550
17967THY    HP236479   8.723   6.834   2.196  0.7228 -0.7637  1.6580
17967THY    HP336480   8.672   6.711   2.076 -0.8315  0.6816  1.2798
17967THY    HP436481   8.801   6.824   2.041  0.2453  1.1326  2.0233
17967THY    CP336482   8.773   6.560   2.254 -0.1005 -0.0388 -0.5251
17967THY    HP536483   8.832   6.485   2.309  0.5627  0.0250  0.0248
17967THY    HP636484   8.693   6.505   2.204  0.6359 -0.4108 -1.2758
17967THY    HP736485   8.725   6.624   2.329  3.2111 -0.3330  2.6327
17967THY    CA336486   9.010   6.689   2.367 -0.1887 -0.2720  0.3033
17967THY    HA336487   8.928   6.655   2.430 -1.2959 -1.5656  0.4448
17967THY    CA436488   9.125   6.750   2.427  0.2407  0.1880  0.3428
17967THY    HA436489   9.135   6.745   2.535  0.0259  0.2128  0.4462
17967THY    CA536490   9.215   6.811   2.350  0.3510  0.4143 -0.2347
17967THY    CM136491   9.336   6.879   2.406  0.4663 -0.2472  0.7373
17967THY    HM136492   9.298   6.914   2.503  1.1871  0.5753 -0.6680
17967THY    HM236493   9.376   6.961   2.345 -0.7694 -1.4820  0.4484
17967THY    HM336494   9.411   6.801   2.427 -1.4825 -0.6950 -1.3699
17967THY    CA636495   9.204   6.801   2.212 -0.6371  0.2268 -0.5406
17967THY    HA636496   9.284   6.843   2.153  0.9057  2.6013  0.0137
17968THY      O36497   5.289   1.933   5.977  0.1172 -0.0827 -0.0203
17968THY     HO36498   5.266   1.843   5.950 -2.0217  2.3231 -0.2969
17968THY    CA136499   5.419   1.947   5.984 -0.2703  0.2358 -0.2429
17968THY    CA236500   5.487   2.052   6.052 -0.3859  0.4192 -0.2309
17968THY    CP136501   5.427   2.180   6.109 -0.1794  0.0508 -0.2658
17968THY    HP136502   5.320   2.176   6.090 -0.5745  1.9961 -0.0758
17968THY    CP236503   5.474   2.300   6.025  0.9601 -0.1359 -0.4649
17968THY    HP236504   5.580   2.315   6.048  1.3672 -0.1361 -2.9425
17968THY    HP336505   5.422   2.393   6.052  1.2562 -1.3913  0.0938
17968THY    HP436506   5.446   2.279   5.921  3.3657 -1.0834  0.5802
17968THY    CP336507   5.455   2.208   6.259 -0.3046 -0.1675 -0.1533
17968THY    HP536508   5.430   2.310   6.287  2.2773 -3.0889  1.4585
17968THY    HP636509   5.562   2.195   6.277 -0.6014  0.2722 -2.7031
17968THY    HP736510   5.392   2.136   6.313 -0.1676 -0.1875 -0.2874
17968THY    CA336511   5.631   2.036   6.045  0.1762  0.7874 -0.0401
17968THY    HA336512   5.693   2.118   6.080  1.0004  2.0835 -1.1642
17968THY    CA436513   5.692   1.919   5.995 -0.0167  0.3929  0.3019
17968THY    HA436514   5.801   1.924   5.988  0.1930 -1.0127 -3.1201
17968THY    CA536515   5.621   1.822   5.930  0.2449  0.2415 -0.1639
17968THY    CM136516   5.704   1.711   5.859  0.2646  0.0050 -0.0901
17968THY    HM136517   5.748   1.627   5.913  0.7005 -1.5566 -0.9200
17968THY    HM236518   5.786   1.760   5.806 -0.7616 -2.3629 -0.7576
17968THY    HM336519   5.642   1.662   5.782  0.3429 -0.2159  0.1537
17968THY    CA636520   5.485   1.832   5.929 -0.1839  0.3437  0.4535
17968THY    HA636521   5.430   1.761   5.868 -0.9478  0.1780  1.1665
17969THY      O36522   3.723   1.737   5.579 -0.7947 -0.3597  0.3120
17969THY     HO36523   3.793   1.780   5.631 -0.1589  0.0290 -1.1493
17969THY    CA136524   3.622   1.723   5.664  0.0005 -0.4360  0.1393
17969THY    CA236525   3.511   1.645   5.637  0.2882  0.3874 -0.3077
17969THY    CP136526   3.489   1.559   5.505  0.4896 -0.0538 -0.6456
17969THY    HP136527   3.585   1.569   5.453  0.7831  0.7590  1.1088
17969THY    CP236528   3.382   1.619   5.408 -0.4964  0.0757  0.3872
17969THY    HP236529   3.282   1.621   5.454 -0.5505  0.0089 -0.3516
17969THY    HP336530   3.370   1.551   5.323  0.2173 -1.5372  2.1948
17969THY    HP436531   3.417   1.717   5.375 -2.3687  1.5462  1.6259
17969THY    CP336532   3.458   1.415   5.523 -0.3471  0.3675 -0.3485
17969THY    HP536533   3.523   1.378   5.604 -1.2552  1.4124  0.2920
17969THY    HP636534   3.481   1.350   5.438 -0.7331  1.3780 -1.8600
17969THY    HP736535   3.354   1.407   5.555 -1.0624 -1.6530  0.3481
17969THY    CA336536   3.415   1.626   5.738  0.2261 -0.1276 -0.0828
17969THY    HA336537   3.330   1.562   5.719  0.3467 -1.2463  0.0756
17969THY    CA436538   3.416   1.694   5.855  0.6309 -0.5864  0.1174
17969THY    HA436539   3.336   1.686   5.929  2.3797  1.2122 -3.0202
17969THY    CA536540   3.530   1.769   5.882 -0.1514  0.0008  0.3161
17969THY    CM136541   3.540   1.831   6.015 -0.7280 -0.6598 -0.8766
17969THY    HM136542   3.467   1.911   6.029  0.3631 -1.3037  0.2630
17969THY    HM236543   3.641   1.873   6.010 -0.9225 -1.9663 -0.5170
17969THY    HM336544   3.541   1.752   6.091 -2.0692 -0.8245 -1.0653
17969THY    CA636545   3.633   1.788   5.789 -0.0371  0.5044  0.5096
17969THY    HA636546   3.722   1.849   5.796  0.9147 -3.7520 -0.0210
17970THY      O36547   7.796   8.118   4.892 -0.6310  0.1058  0.6774
17970THY     HO36548   7.706   8.148   4.912 -2.2481  0.8201 -3.8261
17970THY    CA136549   7.877   8.197   4.970 -0.5050 -0.2881  0.4135
17970THY    CA236550   8.014   8.174   4.995 -0.3294 -0.2686 -0.0910
17970THY    CP136551   8.084   8.052   4.920 -0.2874 -0.1909 -0.7194
17970THY    HP136552   8.016   7.967   4.907 -1.0712 -0.4318 -0.0689
17970THY    CP236553   8.200   7.994   5.016  0.1030  0.7479  0.2500
17970THY    HP236554   8.172   7.982   5.121 -0.9900  0.6357  1.5761
17970THY    HP336555   8.285   8.062   5.030 -0.4442  1.5848  0.7784
17970THY    HP436556   8.237   7.897   4.980  0.2655 -2.2481  1.3259
17970THY    CP336557   8.147   8.094   4.784  0.4937  0.5837 -0.0720
17970THY    HP536558   8.080   8.151   4.720  0.0741  2.7916  2.0969
17970THY    HP636559   8.183   8.007   4.728 -0.4265 -1.7438  0.9704
17970THY    HP736560   8.236   8.153   4.809  1.6800 -0.7234 -1.2487
17970THY    CA336561   8.088   8.280   5.055 -0.6530  0.1246 -0.0232
17970THY    HA336562   8.195   8.275   5.074 -0.5878  1.5162  3.6881
17970THY    CA436563   8.026   8.387   5.114  0.4931  0.3246  0.5212
17970THY    HA436564   8.086   8.456   5.173  0.6519  1.0447 -0.2085
17970THY    CA536565   7.888   8.399   5.093  0.0702 -0.1360  0.2489
17970THY    CM136566   7.811   8.521   5.144 -0.0404  0.0021 -0.6682
17970THY    HM136567   7.870   8.611   5.163 -0.3511  0.5659 -0.5760
17970THY    HM236568   7.763   8.507   5.242 -1.6654 -0.6392  0.2884
17970THY    HM336569   7.733   8.544   5.072 -0.7201  0.3582 -1.7933
17970THY    CA636570   7.814   8.310   5.018  0.5651 -0.3131  0.3061
17970THY    HA636571   7.706   8.319   5.009  0.1601  2.0451 -1.3716
17971THY      O36572   3.420   7.490   3.492  0.3143 -0.0333 -0.1413
17971THY     HO36573   3.515   7.497   3.475  0.0368 -1.0856  1.5042
17971THY    CA136574   3.349   7.561   3.394 -0.3926  0.2438  0.2693
17971THY    CA236575   3.213   7.572   3.414  0.3378  0.0033  0.4245
17971THY    CP136576   3.138   7.517   3.529  0.2090  0.0001 -0.4938
17971THY    HP136577   3.205   7.461   3.595 -2.8135  1.7901 -2.1947
17971THY    CP236578   3.030   7.420   3.478  0.8132 -0.6400 -0.0192
17971THY    HP236579   3.081   7.345   3.416 -1.8637 -0.2996 -2.2695
17971THY    HP336580   2.961   7.467   3.407 -0.5739  1.7927  1.8092
17971THY    HP436581   2.982   7.362   3.557  0.3367 -1.9411 -1.4666
17971THY    CP336582   3.071   7.622   3.616  0.6261  0.5332  0.0835
17971THY    HP536583   3.060   7.575   3.714 -0.1741 -0.3035 -1.5637
17971THY    HP636584   2.979   7.660   3.571 -0.9450  1.7260 -2.1284
17971THY    HP736585   3.153   7.694   3.631 -0.0079  0.8757  0.7403
17971THY    CA336586   3.146   7.644   3.310 -0.2495 -0.4522  0.5897
17971THY    HA336587   3.039   7.659   3.322 -0.3892 -1.7415  0.6866
17971THY    CA436588   3.208   7.675   3.186  0.2857 -0.1064 -0.4796
17971THY    HA436589   3.156   7.727   3.106 -1.9778  1.6505  0.1179
17971THY    CA536590   3.340   7.642   3.171 -0.7016  0.0204  0.3267
17971THY    CM136591   3.421   7.663   3.044  0.0200 -0.5208  0.1139
17971THY    HM136592   3.444   7.574   2.984 -2.1047  1.6297 -2.0204
17971THY    HM236593   3.511   7.718   3.075 -0.5290  0.9502  0.2317
17971THY    HM336594   3.371   7.735   2.978 -0.5266 -2.4037 -1.8826
17971THY    CA636595   3.415   7.592   3.277 -0.2512 -0.4171 -0.1184
17971THY    HA636596   3.522   7.580   3.266 -0.1412 -0.7883  1.0925
17972THY      O36597   9.013   0.264   4.588  0.5488 -0.3097  0.4474
17972THY     HO36598   8.957   0.186   4.599 -0.2705  1.2055  1.2026
17972THY    CA136599   9.083   0.264   4.701  0.0014 -0.2186 -0.5182
17972THY    CA236600   9.221   0.308   4.696  0.2341  0.1189  0.4062
17972THY    CP136601   9.279   0.362   4.561  0.4251 -0.1055  0.7724
17972THY    HP136602   9.220   0.328   4.475  0.1650  0.6057 -0.6658
17972THY    CP236603   9.433   0.324   4.536  0.4511  0.6183  0.0061
17972THY    HP236604   9.493   0.390   4.600 -0.6035  1.0751  0.5582
17972THY    HP336605   9.470   0.329   4.434 -0.0235  0.3833 -1.0265
17972THY    HP436606   9.452   0.224   4.575  1.5101 -0.8977 -0.4126
17972THY    CP336607   9.257   0.508   4.554 -0.3585 -0.0674 -0.1827
17972THY    HP536608   9.295   0.551   4.647  0.5176 -0.6469  0.3272
17972THY    HP636609   9.150   0.528   4.543 -0.0358 -3.3758  0.2853
17972THY    HP736610   9.317   0.550   4.472  0.7855  1.3502  1.1099
17972THY    CA336611   9.291   0.320   4.820 -0.9405 -0.2308 -0.1824
17972THY    HA336612   9.397   0.341   4.823 -0.2495  1.4010 -3.3239
17972THY    CA436613   9.227   0.278   4.939  0.5293 -0.4005 -0.6729
17972THY    HA436614   9.273   0.279   5.037 -2.8177  1.3439  0.2281
17972THY    CA536615   9.091   0.243   4.941 -0.6315 -0.2639 -0.7431
17972THY    CM136616   9.026   0.199   5.063  0.8440  0.3830 -0.2322
17972THY    HM136617   8.918   0.209   5.043  0.8614 -0.1882 -1.1007
17972THY    HM236618   9.047   0.277   5.138 -0.5844  0.0400  0.5186
17972THY    HM336619   9.039   0.094   5.090 -0.8954 -1.4633 -0.9821
17972THY    CA636620   9.024   0.236   4.821  0.3260 -0.6430  1.3295
17972THY    HA636621   8.919   0.206   4.817 -0.3057  2.1271  2.8361
17973THY      O36622   6.769   7.815   6.908  0.1795 -0.1490 -0.3518
17973THY     HO36623   6.789   7.768   6.990  1.8609 -0.4640 -0.2526
17973THY    CA136624   6.838   7.749   6.806  0.1576 -0.0225  0.1999
17973THY    CA236625   6.828   7.777   6.673 -0.7721 -0.5776 -0.3107
17973THY    CP136626   6.745   7.908   6.629 -0.4961  0.5044 -0.3565
17973THY    HP136627   6.730   7.979   6.711 -0.9115 -1.3122  1.7798
17973THY    CP236628   6.615   7.872   6.556 -0.2514 -0.2193 -0.2379
17973THY    HP236629   6.621   7.794   6.478 -0.2807 -0.4315 -0.0308
17973THY    HP336630   6.576   7.961   6.506 -1.2269  0.3723 -0.3223
17973THY    HP436631   6.541   7.846   6.632  1.4753  0.6154 -3.1902
17973THY    CP336632   6.844   7.980   6.529  0.4167 -0.6952  0.5163
17973THY    HP536633   6.813   8.085   6.526 -1.3549 -0.7773  0.0153
17973THY    HP636634   6.838   7.936   6.429  0.6153 -0.3609 -0.2765
17973THY    HP736635   6.947   7.978   6.568  0.0742  0.2053 -1.0507
17973THY    CA336636   6.900   7.701   6.580  0.1642  0.2217  0.1129
17973THY    HA336637   6.889   7.722   6.474 -1.8596  0.1200 -1.2579
17973THY    CA436638   6.981   7.595   6.623 -0.4195 -0.4507  0.0850
17973THY    HA436639   7.019   7.524   6.550 -0.3466  0.0222 -0.3709
17973THY    CA536640   6.995   7.572   6.761  0.7692  1.5350  0.7277
17973THY    CM136641   7.091   7.467   6.817  0.3294  0.0538 -0.8376
17973THY    HM136642   7.088   7.466   6.926  1.2523  0.1324  0.8116
17973THY    HM236643   7.196   7.476   6.787  0.3388 -1.0672 -3.7288
17973THY    HM336644   7.069   7.366   6.781 -0.3309 -1.0754 -0.3189
17973THY    CA636645   6.923   7.651   6.851  0.4506  0.3427  0.0249
17973THY    HA636646   6.932   7.652   6.959 -1.3671  0.5393  1.4171
17974THY      O36647   6.356   8.695   4.401 -0.2770 -0.2984  0.4164
17974THY     HO36648   6.428   8.642   4.439  1.3796 -3.0618  0.5032
17974THY    CA136649   6.403   8.819   4.437 -0.3498  0.0005  0.5240
17974THY    CA236650   6.320   8.925   4.440  0.1924  0.7213 -1.2920
17974THY    CP136651   6.169   8.910   4.410 -0.3325 -0.3864  0.2167
17974THY    HP136652   6.127   8.809   4.398 -3.8947  1.9629  1.2739
17974THY    CP236653   6.140   8.972   4.274  0.2734  0.6838 -0.2163
17974THY    HP236654   6.165   9.079   4.275  1.5630  0.3939 -0.4872
17974THY    HP336655   6.036   8.959   4.245 -0.2101  2.4708 -0.6044
17974THY    HP436656   6.202   8.938   4.190 -1.5551 -0.7911 -0.0001
17974THY    CP336657   6.094   8.968   4.527 -1.0756 -0.1058  0.2568
17974THY    HP536658   6.120   8.918   4.620  0.4188 -0.0426  1.0855
17974THY    HP636659   5.985   8.963   4.517 -1.2769  0.2234  2.6365
17974THY    HP736660   6.122   9.074   4.527 -0.1246 -2.4739  0.0892
17974THY    CA336661   6.370   9.057   4.469 -0.1291  1.0209  0.9446
17974THY    HA336662   6.301   9.141   4.465 -2.3220 -0.1718 -0.8150
17974THY    CA436663   6.511   9.073   4.501  0.1539 -0.3662 -0.2925
17974THY    HA436664   6.550   9.173   4.512  0.3553  0.1865 -0.4265
17974THY    CA536665   6.589   8.954   4.503  0.3018  0.1012 -0.7403
17974THY    CM136666   6.739   8.970   4.527 -0.0501 -0.5150  0.2570
17974THY    HM136667   6.786   9.025   4.445  0.6960 -0.0978  0.2440
17974THY    HM236668   6.792   8.875   4.540 -0.3498  1.2817  0.3097
17974THY    HM336669   6.766   9.023   4.619 -2.2163  0.5647 -0.3683
17974THY    CA636670   6.538   8.829   4.469  0.1179 -0.1220 -0.2806
17974THY    HA636671   6.606   8.745   4.476 -0.6052 -2.7048 -1.1869
17975THY      O36672   2.110   3.286   3.607 -0.0125 -0.1757  0.2109
17975THY     HO36673   2.154   3.372   3.596 -1.0583  1.1698  0.9687
17975THY    CA136674   2.205   3.189   3.592 -0.4021 -0.0628  0.3882
17975THY    CA236675   2.183   3.051   3.565  0.0132  0.2054 -0.7113
17975THY    CP136676   2.042   3.003   3.537  0.1261 -0.0987  0.3316
17975THY    HP136677   1.974   3.084   3.565  0.8174 -1.1446  1.3045
17975THY    CP236678   2.002   2.894   3.643 -0.2924  0.1901  0.0660
17975THY    HP236679   2.064   2.805   3.652 -0.9449 -0.4495 -0.4716
17975THY    HP336680   1.893   2.878   3.647 -0.3800 -1.4308  0.0976
17975THY    HP436681   2.033   2.927   3.742 -2.2320  0.7842  0.2286
17975THY    CP336682   2.020   2.971   3.390  0.4168 -0.0957 -0.1222
17975THY    HP536683   2.027   3.061   3.328 -3.1656 -3.0055 -1.6281
17975THY    HP636684   1.916   2.938   3.393  0.7981 -0.1149 -1.3451
17975THY    HP736685   2.088   2.896   3.350 -0.3250 -1.8769  0.1170
17975THY    CA336686   2.289   2.963   3.553 -0.3048  0.0604  0.5974
17975THY    HA336687   2.265   2.861   3.524 -0.1621 -1.6939  1.0318
17975THY    CA436688   2.421   3.002   3.584 -0.2978  0.1697  0.0645
17975THY    HA436689   2.497   2.927   3.567 -2.2351 -0.7730 -1.7900
17975THY    CA536690   2.444   3.136   3.622  0.7687  0.2248  0.5353
17975THY    CM136691   2.581   3.177   3.654  0.0250  0.2597  0.4420
17975THY    HM136692   2.597   3.285   3.662 -0.9049  0.8034  0.5433
17975THY    HM236693   2.648   3.122   3.587 -2.2497  0.2811 -2.6322
17975THY    HM336694   2.615   3.122   3.742 -0.5114 -0.3627 -0.9274
17975THY    CA636695   2.337   3.227   3.628 -0.2338  0.8232 -0.6258
17975THY    HA636696   2.358   3.325   3.670  0.5469 -0.1474 -0.3646
17976THY      O36697   5.608   2.172   4.957 -0.0995  0.4266 -0.4892
17976THY     HO36698   5.676   2.223   5.005  0.2577  0.3332 -0.8685
17976THY    CA136699   5.496   2.171   5.021  0.3236  0.3338 -0.0988
17976THY    CA236700   5.370   2.143   4.961  0.7323 -0.2653  0.1854
17976THY    CP136701   5.366   2.091   4.825 -0.2193 -0.6782  0.2333
17976THY    HP136702   5.447   2.135   4.765  0.5412  1.1108  1.3887
17976THY    CP236703   5.235   2.131   4.742  0.6024 -0.8537 -0.1081
17976THY    HP236704   5.201   2.233   4.759  0.6322 -2.0027  0.1022
17976THY    HP336705   5.150   2.070   4.773 -0.7194 -0.9901  1.6047
17976THY    HP436706   5.254   2.122   4.634 -0.8959 -1.3195  1.7496
17976THY    CP336707   5.383   1.944   4.809  0.9127 -1.0234 -0.0146
17976THY    HP536708   5.289   1.897   4.841 -0.6220 -3.0024  1.5462
17976THY    HP636709   5.480   1.907   4.846 -0.3800  0.4409 -2.1284
17976THY    HP736710   5.372   1.921   4.703 -4.2012 -0.6378 -0.3544
17976THY    CA336711   5.253   2.162   5.035 -1.3192 -0.2743  0.0060
17976THY    HA336712   5.151   2.135   5.013 -2.3071  2.6792  0.8791
17976THY    CA436713   5.260   2.197   5.166  0.6872 -0.8107 -0.8260
17976THY    HA436714   5.164   2.209   5.214  1.5602  0.3353  3.3751
17976THY    CA536715   5.385   2.228   5.224 -0.5698  0.6849  0.5008
17976THY    CM136716   5.393   2.256   5.368  1.0182 -0.3838  0.4534
17976THY    HM136717   5.302   2.311   5.397  0.4848 -0.5334 -0.3351
17976THY    HM236718   5.476   2.321   5.399 -0.6550  2.0107  1.6221
17976THY    HM336719   5.399   2.166   5.430 -0.0447 -0.0314  0.6047
17976THY    CA636720   5.501   2.205   5.155  0.1498  0.2587  0.6340
17976THY    HA636721   5.598   2.208   5.204  0.3687  0.0183 -1.2057
17977THY      O36722   7.285   2.497   3.986 -0.1017  0.1786 -0.1658
17977THY     HO36723   7.233   2.544   4.054 -0.2548 -0.6650  0.9315
17977THY    CA136724   7.298   2.380   4.052  0.1126 -0.0642  0.6693
17977THY    CA236725   7.271   2.260   3.983 -0.2036  0.2077  0.0285
17977THY    CP136726   7.218   2.267   3.842 -0.5892  0.8002  0.2946
17977THY    HP136727   7.250   2.361   3.795 -3.1847 -2.3251 -0.1974
17977THY    CP236728   7.065   2.275   3.851 -0.0229 -0.4921 -1.1390
17977THY    HP236729   7.027   2.373   3.878 -2.3263  3.0953 -2.8301
17977THY    HP336730   7.033   2.209   3.932  0.8540 -0.6600 -1.8081
17977THY    HP436731   7.018   2.243   3.757 -0.0379 -1.0977  0.5542
17977THY    CP336732   7.278   2.156   3.757  0.3099  0.0674 -0.3871
17977THY    HP536733   7.378   2.137   3.795  0.8520 -0.8482  0.5542
17977THY    HP636734   7.279   2.183   3.650  0.4573  0.5709  1.7670
17977THY    HP736735   7.226   2.061   3.777  0.3852 -0.5498 -0.5671
17977THY    CA336736   7.294   2.136   4.051 -0.0556  0.8081 -0.2412
17977THY    HA336737   7.278   2.040   4.002  1.6927  1.4632 -0.9051
17977THY    CA436738   7.335   2.141   4.185  0.6206  0.0750 -0.4839
17977THY    HA436739   7.345   2.048   4.242 -1.4657 -1.3431 -1.6534
17977THY    CA536740   7.344   2.263   4.257  0.3225  0.1075  0.8131
17977THY    CM136741   7.381   2.267   4.402  0.4696 -0.1996  0.1396
17977THY    HM136742   7.425   2.172   4.435 -1.9526 -0.4350 -1.1560
17977THY    HM236743   7.292   2.289   4.463 -0.7394 -1.8833  0.0607
17977THY    HM336744   7.456   2.343   4.425  0.7334  1.7421 -0.6324
17977THY    CA636745   7.328   2.379   4.184  0.0360  0.6150  0.4562
17977THY    HA636746   7.336   2.477   4.230  1.0158 -0.6798  1.0075
17978THY      O36747   4.331   2.694   6.218 -0.6307 -0.4462  0.7713
17978THY     HO36748   4.307   2.789   6.212 -2.1186 -1.5616  0.3629
17978THY    CA136749   4.220   2.620   6.198 -0.0745 -0.0884 -1.4915
17978THY    CA236750   4.217   2.479   6.198 -0.4005  0.1604  0.5479
17978THY    CP136751   4.352   2.402   6.222 -0.4450 -0.3735 -0.3358
17978THY    HP136752   4.441   2.459   6.191 -0.5476 -0.9148 -0.4621
17978THY    CP236753   4.362   2.276   6.134 -0.0472  0.2146 -0.8023
17978THY    HP236754   4.284   2.204   6.163 -1.7458 -1.8158  0.1127
17978THY    HP336755   4.466   2.246   6.151  1.8337 -0.9973  4.0125
17978THY    HP436756   4.357   2.316   6.032  2.7782  0.9418  1.8331
17978THY    CP336757   4.378   2.351   6.366 -0.5883  0.5827 -0.2873
17978THY    HP536758   4.302   2.277   6.393 -0.6825  0.3031 -0.2936
17978THY    HP636759   4.361   2.445   6.420 -2.3583 -0.2844 -0.0620
17978THY    HP736760   4.480   2.312   6.370 -0.6752 -0.9138 -0.7276
17978THY    CA336761   4.096   2.410   6.205  0.9671 -0.0533 -0.6647
17978THY    HA336762   4.090   2.302   6.216  0.6584 -0.0523 -0.6498
17978THY    CA436763   3.973   2.487   6.210  0.7993  0.1830 -0.4560
17978THY    HA436764   3.876   2.439   6.210 -0.0254  0.2855  1.1557
17978THY    CA536765   3.975   2.627   6.197  0.0854  0.3373 -0.1553
17978THY    CM136766   3.853   2.710   6.173  0.7562 -0.6247  0.8317
17978THY    HM136767   3.840   2.736   6.067 -1.4417 -0.9472 -1.1657
17978THY    HM236768   3.852   2.797   6.240  1.2858  2.6337 -1.4911
17978THY    HM336769   3.769   2.642   6.195  0.9884  1.3052  1.1277
17978THY    CA636770   4.100   2.692   6.192 -0.4084 -0.2695  0.0782
17978THY    HA636771   4.104   2.800   6.180  1.7815 -1.1957 -0.0540
17979THY      O36772   1.194   6.965   4.516  0.1069  0.3069  0.2466
17979THY     HO36773   1.174   7.043   4.570 -1.2122  0.5128 -0.1967
17979THY    CA136774   1.171   6.856   4.591  0.1354  0.4497  0.5908
17979THY    CA236775   1.136   6.731   4.525 -0.6437 -0.3286  0.0269
17979THY    CP136776   1.145   6.713   4.372 -0.1064 -0.1940 -0.1037
17979THY    HP136777   1.239   6.760   4.340  0.1575 -0.5791 -0.8896
17979THY    CP236778   1.032   6.791   4.283 -0.5122  0.6345  0.9108
17979THY    HP236779   0.999   6.890   4.315 -0.2361  2.7599  0.3689
17979THY    HP336780   0.941   6.730   4.289  0.3624 -0.1186 -0.5445
17979THY    HP436781   1.055   6.805   4.177 -2.8644  0.1117  1.2365
17979THY    CP336782   1.177   6.572   4.320 -0.2187 -1.1138 -0.1981
17979THY    HP536783   1.263   6.533   4.375 -2.1178  1.2806 -1.2608
17979THY    HP636784   1.183   6.577   4.210  0.1790 -1.1875 -1.6810
17979THY    HP736785   1.091   6.505   4.334 -0.2029 -1.3375 -0.2661
17979THY    CA336786   1.083   6.629   4.610  0.4690 -0.5856  0.2652
17979THY    HA336787   1.038   6.539   4.569 -0.6721  1.9558 -0.4262
17979THY    CA436788   1.083   6.643   4.754 -0.5735 -0.0056 -0.0255
17979THY    HA436789   1.045   6.564   4.818 -2.4668  0.0716  0.9118
17979THY    CA536790   1.112   6.769   4.808 -0.1451  0.5187 -0.0906
17979THY    CM136791   1.101   6.779   4.960 -0.0832 -0.4948 -0.8203
17979THY    HM136792   1.138   6.684   5.001 -1.4417  0.6919 -0.8632
17979THY    HM236793   1.000   6.784   5.002  0.1125  0.0226 -1.1101
17979THY    HM336794   1.151   6.866   5.004 -3.1718 -0.7013  1.2202
17979THY    CA636795   1.155   6.873   4.725  0.6837 -0.4866 -0.3569
17979THY    HA636796   1.170   6.971   4.768  1.5809  0.5980 -0.9441
17980THY      O36797   3.786   3.518   1.984  0.5287  0.5980  0.5153
17980THY     HO36798   3.824   3.463   2.054 -2.1103  0.3316 -1.8335
17980THY    CA136799   3.799   3.454   1.865 -0.2802 -0.3741  0.5864
17980THY    CA236800   3.746   3.507   1.748 -0.8221 -0.8802 -0.7973
17980THY    CP136801   3.681   3.648   1.748  0.3171 -0.1183  0.4142
17980THY    HP136802   3.632   3.661   1.845 -1.4711 -0.8638 -0.4393
17980THY    CP236803   3.571   3.665   1.640 -0.0625  0.5157 -0.0386
17980THY    HP236804   3.510   3.753   1.662 -1.8674 -2.1089 -0.5324
17980THY    HP336805   3.497   3.585   1.631 -0.6771  0.4084  0.5311
17980THY    HP436806   3.612   3.685   1.541  1.8988  1.4511  0.8232
17980THY    CP336807   3.791   3.757   1.730 -0.0876  0.8859 -0.2070
17980THY    HP536808   3.856   3.719   1.651 -0.1835  0.1010  1.1626
17980THY    HP636809   3.858   3.763   1.817  1.4569 -0.2663 -0.2650
17980THY    HP736810   3.746   3.854   1.703 -1.2035  1.5873 -0.4985
17980THY    CA336811   3.765   3.435   1.630  0.2306 -0.5928  0.2742
17980THY    HA336812   3.732   3.478   1.536 -1.6190 -0.0956  0.0361
17980THY    CA436813   3.828   3.309   1.635 -0.1865  0.0687  0.6334
17980THY    HA436814   3.840   3.249   1.546 -0.2112  2.1367 -2.6581
17980THY    CA536815   3.885   3.259   1.751  0.5698  0.2045 -0.7148
17980THY    CM136816   3.954   3.122   1.743  0.1492  0.1921  0.0985
17980THY    HM136817   4.046   3.135   1.802  0.7068 -0.7040  0.3422
17980THY    HM236818   3.988   3.087   1.645  0.0797  0.2777 -0.2032
17980THY    HM336819   3.890   3.042   1.782  1.1652 -0.5911 -1.1361
17980THY    CA636820   3.866   3.329   1.871  0.1263  0.2464  0.4074
17980THY    HA636821   3.906   3.291   1.964 -1.7331  0.1811 -2.0245
17981THY      O36822   3.050   6.021   2.066 -0.4659  0.5688  0.1778
17981THY     HO36823   3.051   6.094   2.131 -0.7093 -1.0041  1.6537
17981THY    CA136824   3.160   5.944   2.083  0.2243  0.2759  0.0842
17981THY    CA236825   3.168   5.816   2.033 -0.2145  0.4903  0.2471
17981THY    CP136826   3.059   5.767   1.938  0.0440  0.7207 -0.2891
17981THY    HP136827   2.997   5.850   1.901  3.4480 -1.6929  1.3952
17981THY    CP236828   2.971   5.670   2.020 -0.0453 -0.0533  0.4692
17981THY    HP236829   3.020   5.576   2.049 -1.6017 -0.1192 -0.3934
17981THY    HP336830   2.882   5.643   1.962  0.1372 -0.7634  1.3431
17981THY    HP436831   2.928   5.718   2.108  0.4054 -0.2163  1.1763
17981THY    CP336832   3.112   5.694   1.813  0.0782 -0.3525 -0.2856
17981THY    HP536833   3.163   5.600   1.838  2.1886  0.2369  0.9634
17981THY    HP636834   3.192   5.747   1.761  1.2078  0.6613 -0.9436
17981THY    HP736835   3.039   5.682   1.732 -0.1377  0.0045 -1.5297
17981THY    CA336836   3.268   5.732   2.083  0.1896 -0.5344  0.2981
17981THY    HA336837   3.269   5.625   2.066 -0.2927 -0.0658  0.2138
17981THY    CA436838   3.371   5.787   2.165 -0.6114  1.1010 -0.1410
17981THY    HA436839   3.447   5.716   2.196  0.1486 -1.4155 -0.5250
17981THY    CA536840   3.365   5.912   2.209 -0.7165  0.1042  0.7931
17981THY    CM136841   3.462   5.951   2.310  0.5986 -0.1313  0.1536
17981THY    HM136842   3.401   5.976   2.397  0.2427  0.0097 -1.1123
17981THY    HM236843   3.510   6.043   2.275 -2.0322 -2.8937  0.6480
17981THY    HM336844   3.534   5.876   2.344  3.2515 -0.8402  2.2138
17981THY    CA636845   3.261   5.993   2.172  0.2456  0.3461 -0.8564
17981THY    HA636846   3.266   6.094   2.213 -0.6914 -0.4813 -0.4596
17982THY      O36847   3.813   6.078   3.244 -0.4796  0.1945  0.5730
17982THY     HO36848   3.870   6.143   3.200 -0.2595 -1.6066 -0.7437
17982THY    CA136849   3.692   6.082   3.181  0.5618 -0.4153  0.2019
17982THY    CA236850   3.640   5.965   3.125 -0.6562  0.4573  0.3288
17982THY    CP136851   3.722   5.827   3.135 -0.1093 -0.1814 -0.4916
17982THY    HP136852   3.817   5.840   3.188  0.8929 -1.6175 -1.6326
17982THY    CP236853   3.762   5.781   2.990  0.3855 -0.0013 -0.2209
17982THY    HP236854   3.675   5.781   2.923  0.4752 -0.1193 -0.7711
17982THY    HP336855   3.813   5.684   2.993 -0.3101 -1.7962 -0.6878
17982THY    HP436856   3.823   5.863   2.950  2.2750  0.7309 -1.2123
17982THY    CP336857   3.636   5.717   3.203  0.0067  0.8143  0.5865
17982THY    HP536858   3.544   5.683   3.155  0.1150 -0.0274  1.4377
17982THY    HP636859   3.628   5.737   3.311  0.0270  0.5736  2.0235
17982THY    HP736860   3.685   5.619   3.201  0.1030  2.9680  0.5447
17982THY    CA336861   3.513   5.966   3.072 -0.1749 -0.0758  0.5937
17982THY    HA336862   3.468   5.875   3.034  1.4658  0.3535 -0.4452
17982THY    CA436863   3.448   6.094   3.063  0.3687  0.2913  0.3082
17982THY    HA436864   3.349   6.101   3.019 -0.3787  1.8575  0.0622
17982THY    CA536865   3.509   6.210   3.112  0.2029  0.1931  0.5808
17982THY    CM136866   3.448   6.342   3.095 -0.6351  0.3394 -0.1428
17982THY    HM136867   3.387   6.367   3.182  1.1938  1.0428  2.2173
17982THY    HM236868   3.386   6.330   3.005 -2.1944  1.2719  0.5294
17982THY    HM336869   3.526   6.415   3.071 -0.2677  2.6738  0.3035
17982THY    CA636870   3.628   6.206   3.173 -0.0577  0.2360  0.1671
17982THY    HA636871   3.670   6.294   3.221  1.4896 -0.7489  0.0117
17983THY      O36872   7.902   1.223   3.291  0.0152 -0.4006  0.5031
17983THY     HO36873   7.990   1.246   3.256 -0.2066 -0.7752  0.7937
17983THY    CA136874   7.839   1.340   3.279  0.2234  0.6510 -0.2506
17983THY    CA236875   7.694   1.350   3.268 -0.2110 -0.3446 -1.2609
17983THY    CP136876   7.608   1.218   3.248 -0.0776 -0.5969 -0.3606
17983THY    HP136877   7.654   1.128   3.290 -1.1415  3.3643  0.7685
17983THY    CP236878   7.575   1.211   3.100  0.6685 -0.1567  0.4748
17983THY    HP236879   7.558   1.312   3.062  0.1414 -0.1420  0.3967
17983THY    HP336880   7.487   1.149   3.078  1.0030 -1.6692  0.4951
17983THY    HP436881   7.660   1.174   3.041  1.4348  0.9336  0.4430
17983THY    CP336882   7.476   1.216   3.330 -0.0138 -0.3355  0.6901
17983THY    HP536883   7.418   1.123   3.319  0.8988  0.9179 -0.0550
17983THY    HP636884   7.413   1.297   3.290 -0.0619  1.3423  1.5203
17983THY    HP736885   7.514   1.211   3.433  2.0990 -1.1092 -0.8363
17983THY    CA336886   7.633   1.481   3.258 -0.2000  0.0390 -0.2414
17983THY    HA336887   7.525   1.490   3.250 -0.0047 -1.0084  2.0008
17983THY    CA436888   7.724   1.590   3.245  0.3154  0.6493 -0.1990
17983THY    HA436889   7.670   1.684   3.250  1.6177  0.3165  0.5936
17983THY    CA536890   7.860   1.583   3.250 -0.1454 -0.0307 -0.4032
17983THY    CM136891   7.950   1.713   3.245  0.2861 -0.0282  0.4125
17983THY    HM136892   7.938   1.773   3.155  0.4886 -0.1718  0.2410
17983THY    HM236893   8.056   1.682   3.250 -0.5560  2.3514 -2.6522
17983THY    HM336894   7.933   1.772   3.336 -1.9623  1.1787 -1.8889
17983THY    CA636895   7.916   1.458   3.261  0.6801 -0.6312 -0.0734
17983THY    HA636896   8.024   1.452   3.265  0.8167 -1.2918  1.5141
17984THY      O36897   5.921   7.273   2.581 -0.2294 -0.4680 -0.8462
17984THY     HO36898   5.926   7.363   2.618  0.3727 -2.5959  0.0701
17984THY    CA136899   5.796   7.222   2.608  0.6507 -0.1285  1.0857
17984THY    CA236900   5.755   7.091   2.571  0.4862  0.2326 -0.0681
17984THY    CP136901   5.849   7.009   2.480 -0.3116  0.1030 -0.5923
17984THY    HP136902   5.948   7.055   2.473 -0.8464 -3.1770  0.3524
17984THY    CP236903   5.789   7.006   2.339 -0.1356  0.2840 -0.1803
17984THY    HP236904   5.684   6.974   2.343 -0.3698  0.3274  0.5742
17984THY    HP336905   5.853   6.943   2.277 -1.2395 -1.8730  0.7465
17984THY    HP436906   5.798   7.108   2.302  1.7061  0.1137 -0.3764
17984THY    CP336907   5.859   6.867   2.528 -0.2868 -0.0880 -0.8549
17984THY    HP536908   5.760   6.820   2.524 -0.1839  0.0247 -1.0838
17984THY    HP636909   5.890   6.857   2.632  0.8242 -0.5072 -2.0462
17984THY    HP736910   5.925   6.799   2.472 -0.1143 -0.2223 -0.5814
17984THY    CA336911   5.629   7.042   2.617 -0.3731 -0.0424 -0.2643
17984THY    HA336912   5.594   6.945   2.582  1.4004 -1.8470 -0.3268
17984THY    CA436913   5.546   7.130   2.690 -0.2484 -0.7294 -0.4261
17984THY    HA436914   5.447   7.095   2.718  0.1280  0.8233 -0.3317
17984THY    CA536915   5.587   7.256   2.730 -0.4364  0.4278  0.7614
17984THY    CM136916   5.493   7.341   2.799  0.2157  0.4416  1.0621
17984THY    HM136917   5.456   7.289   2.888 -1.7223 -0.5314  0.6632
17984THY    HM236918   5.418   7.367   2.724  0.1210  0.6292  1.3435
17984THY    HM336919   5.544   7.431   2.835  2.7739  0.0977 -0.1606
17984THY    CA636920   5.716   7.297   2.689 -0.2270 -0.1812 -0.4618
17984THY    HA636921   5.752   7.398   2.707 -2.8899  0.6444  0.4191
17985THY      O36922   1.970   5.930   3.256 -0.1599  0.3569  0.6975
17985THY     HO36923   2.009   6.014   3.224 -0.9099  0.2994  1.0347
17985THY    CA136924   1.843   5.955   3.289  0.8009 -0.5726  0.3618
17985THY    CA236925   1.762   5.857   3.348  0.7187  0.6531  0.1611
17985THY    CP136926   1.818   5.725   3.391  0.6401  0.7679  0.3166
17985THY    HP136927   1.927   5.719   3.380  0.6505  1.3337 -0.8267
17985THY    CP236928   1.753   5.610   3.305  0.2535  0.1019 -0.2468
17985THY    HP236929   1.741   5.645   3.202 -1.1703  1.0542  2.4145
17985THY    HP336930   1.650   5.590   3.337  0.7438  0.6083 -2.1204
17985THY    HP436931   1.817   5.525   3.328 -0.0835  1.3995 -0.1822
17985THY    CP336932   1.790   5.709   3.537  0.2961 -0.0087 -0.5097
17985THY    HP536933   1.683   5.703   3.563  0.5130  1.3847  0.9301
17985THY    HP636934   1.840   5.785   3.598  2.9141 -2.2016 -0.3369
17985THY    HP736935   1.829   5.612   3.572 -0.6326 -0.3425 -1.0126
17985THY    CA336936   1.628   5.886   3.367  0.3121  0.1831 -0.3413
17985THY    HA336937   1.563   5.810   3.409  1.1950 -1.2573 -1.9547
17985THY    CA436938   1.572   6.012   3.337 -0.7828 -0.9931  0.1642
17985THY    HA436939   1.468   6.034   3.362 -1.2098 -1.7278 -0.8975
17985THY    CA536940   1.649   6.104   3.282 -0.3834 -0.4597 -0.3589
17985THY    CM136941   1.599   6.237   3.244  0.9657 -0.0410 -0.3688
17985THY    HM136942   1.565   6.300   3.327 -0.9510 -1.0782  0.0486
17985THY    HM236943   1.516   6.228   3.173  0.4356  0.4344  0.5704
17985THY    HM336944   1.683   6.291   3.199 -0.1485 -1.0843  0.5629
17985THY    CA636945   1.784   6.076   3.249  0.0446 -0.1146  0.0143
17985THY    HA636946   1.845   6.157   3.209 -1.3367 -2.7698 -0.1383
17986THY      O36947   4.571   3.373   4.309 -0.1709  0.2001  0.1894
17986THY     HO36948   4.638   3.363   4.240 -0.1157  0.1111  1.1426
17986THY    CA136949   4.458   3.417   4.247  0.3421 -0.3783  0.5649
17986THY    CA236950   4.353   3.470   4.320  0.6261  0.1104 -0.8991
17986THY    CP136951   4.361   3.490   4.477  0.2298  0.0600  0.2446
17986THY    HP136952   4.461   3.465   4.514  0.2920 -0.8188 -0.8932
17986THY    CP236953   4.260   3.396   4.557 -0.2962 -0.2913  0.2115
17986THY    HP236954   4.159   3.433   4.535 -0.7296 -2.0275 -1.8466
17986THY    HP336955   4.285   3.391   4.663  1.9393 -0.8297 -1.3464
17986THY    HP436956   4.249   3.294   4.519 -2.5063 -0.9208  0.6297
17986THY    CP336957   4.333   3.633   4.517  0.2471  0.1978  0.4502
17986THY    HP536958   4.371   3.649   4.618  0.3296  0.4905 -1.4224
17986THY    HP636959   4.225   3.653   4.509  0.1328 -3.2980 -0.8670
17986THY    HP736960   4.393   3.701   4.455 -0.6470 -1.3280 -0.0860
17986THY    CA336961   4.249   3.528   4.243  0.1884  0.1214  0.2617
17986THY    HA336962   4.174   3.583   4.298 -0.9438 -2.3677  1.3599
17986THY    CA436963   4.244   3.498   4.106 -0.8416 -0.5369 -0.2287
17986THY    HA436964   4.173   3.543   4.038  0.3501 -0.8760  1.2053
17986THY    CA536965   4.342   3.430   4.044 -0.1064  0.5519  0.3301
17986THY    CM136966   4.344   3.422   3.894 -0.1293 -0.4076  0.0317
17986THY    HM136967   4.402   3.335   3.860  1.0015 -0.3641  0.7532
17986THY    HM236968   4.394   3.507   3.847 -1.0834 -3.9980 -1.2159
17986THY    HM336969   4.241   3.406   3.859 -0.2093  1.0591 -3.8235
17986THY    CA636970   4.452   3.383   4.115  0.1915 -0.0188 -0.3253
17986THY    HA636971   4.533   3.338   4.058 -2.1193 -1.4977 -2.9295
17987THY      O36972   7.247   6.094   5.602 -1.1813 -0.5245 -0.4100
17987THY     HO36973   7.221   6.181   5.567  1.3476  0.7606  0.9681
17987THY    CA136974   7.253   6.118   5.737  0.9290  0.4010 -0.3137
17987THY    CA236975   7.253   6.011   5.825 -0.4290 -0.3845  0.0418
17987THY    CP136976   7.297   5.878   5.773 -0.3875  0.5034 -0.1102
17987THY    HP136977   7.283   5.868   5.665  0.1942  0.1476  2.1670
17987THY    CP236978   7.230   5.755   5.827 -0.3242 -0.4033  0.2164
17987THY    HP236979   7.124   5.757   5.797 -0.5561  0.3486 -0.1979
17987THY    HP336980   7.231   5.735   5.935  1.0218 -0.9584 -3.4943
17987THY    HP436981   7.279   5.667   5.784 -0.1662 -0.1129  0.1595
17987THY    CP336982   7.457   5.868   5.783  0.0359  0.5168 -0.3899
17987THY    HP536983   7.498   5.794   5.713  0.6971  0.3633  0.1111
17987THY    HP636984   7.484   5.847   5.887 -1.8127  1.8603  3.0175
17987THY    HP736985   7.504   5.963   5.756 -0.4714 -0.9809 -0.5386
17987THY    CA336986   7.249   6.038   5.965 -0.3453 -0.3470  0.3197
17987THY    HA336987   7.249   5.955   6.035  0.0856  1.5159  1.8273
17987THY    CA436988   7.235   6.170   6.013 -0.7382  0.2764  0.2443
17987THY    HA436989   7.238   6.186   6.121 -1.1028  0.1714  1.0767
17987THY    CA536990   7.226   6.274   5.923 -0.1861 -0.5271 -0.1267
17987THY    CM136991   7.190   6.411   5.974  0.8519 -0.1305  0.1343
17987THY    HM136992   7.081   6.421   5.975  0.9613 -0.6937  1.5514
17987THY    HM236993   7.234   6.478   5.899  1.6266 -1.3810 -1.6771
17987THY    HM336994   7.236   6.442   6.068  1.3679 -0.5719  0.7425
17987THY    CA636995   7.245   6.250   5.784  0.5555  0.7286 -0.2592
17987THY    HA636996   7.247   6.326   5.707  1.5852 -1.2568 -2.1898
17988THY      O36997   8.099   0.897   6.170  0.1021 -0.4286  0.7720
17988THY     HO36998   8.178   0.902   6.113  1.0740  0.2583 -3.2963
17988THY    CA136999   8.135   0.956   6.283  0.3081  0.1349  0.5456
17988THY    CA237000   8.102   0.902   6.411  1.0426 -0.1831 -0.2231
17988THY    CP137001   8.035   0.768   6.419 -0.4512  0.6025 -0.3801
17988THY    HP137002   8.046   0.724   6.320 -0.0249 -1.0856  3.1463
17988THY    CP237003   7.884   0.764   6.433  0.0561  0.1019  0.0377
17988THY    HP237004   7.835   0.675   6.393  0.2824 -0.4940  0.1780
17988THY    HP337005   7.833   0.850   6.390 -1.5554  1.4979 -0.1610
17988THY    HP437006   7.846   0.783   6.535 -2.3017 -0.7337  0.1552
17988THY    CP337007   8.105   0.667   6.514 -0.2045 -0.5729  0.4297
17988THY    HP537008   8.098   0.563   6.482 -4.0090 -2.4421  1.1055
17988THY    HP637009   8.064   0.664   6.615  1.6083  0.2012  0.0817
17988THY    HP737010   8.214   0.675   6.521 -0.3730  1.5760  1.4560
17988THY    CA337011   8.135   0.976   6.530 -0.1053  0.0255 -0.7289
17988THY    HA337012   8.098   0.944   6.627  1.6849  0.6525 -0.9852
17988THY    CA437013   8.225   1.087   6.511  0.2046 -0.1776  0.1902
17988THY    HA437014   8.258   1.150   6.593 -1.6678 -0.7147  1.9873
17988THY    CA537015   8.252   1.140   6.384 -0.4827 -0.2017  0.4097
17988THY    CM137016   8.340   1.265   6.365 -0.4255  1.0177 -0.2746
17988THY    HM137017   8.266   1.332   6.319 -1.1919  0.7710 -1.2616
17988THY    HM237018   8.424   1.255   6.296  0.4832  2.1322 -0.5622
17988THY    HM337019   8.370   1.307   6.462  0.0827  0.5324  0.4900
17988THY    CA637020   8.214   1.065   6.276  0.3438  1.0851 -0.5558
17988THY    HA637021   8.249   1.101   6.179  0.2801  0.8963 -0.9977
17989THY      O37022   8.029   2.377   7.245 -0.1782 -0.2315  0.1770
17989THY     HO37023   8.099   2.405   7.183  2.1588  2.5993  1.0983
17989THY    CA137024   8.082   2.281   7.323 -0.4451 -0.1185  0.1296
17989THY    CA237025   8.018   2.230   7.440 -0.4612  0.7564 -0.9863
17989THY    CP137026   7.883   2.288   7.479  0.3282 -0.3636  0.0667
17989THY    HP137027   7.859   2.374   7.416  1.0234 -1.0397 -0.2288
17989THY    CP237028   7.889   2.355   7.622  0.1817 -0.1339 -0.1759
17989THY    HP237029   7.949   2.293   7.689  0.0661  1.2095  1.1160
17989THY    HP337030   7.789   2.366   7.666  0.9944  1.4893  1.1139
17989THY    HP437031   7.941   2.452   7.617 -0.7570 -1.4042  0.2994
17989THY    CP337032   7.761   2.182   7.469 -0.1770 -0.2646 -1.0974
17989THY    HP537033   7.661   2.222   7.489 -0.0516 -0.6393 -0.5948
17989THY    HP637034   7.776   2.109   7.550 -0.8985 -0.2117 -1.1923
17989THY    HP737035   7.749   2.145   7.366 -1.9824 -0.3020 -0.5194
17989THY    CA337036   8.090   2.127   7.518 -0.2856 -0.1239  0.1668
17989THY    HA337037   8.032   2.080   7.597  0.3072 -0.2606 -0.8070
17989THY    CA437038   8.220   2.086   7.487 -0.2320  0.2883  0.6460
17989THY    HA437039   8.271   2.013   7.549  1.4194 -0.0139  1.4903
17989THY    CA537040   8.283   2.151   7.382  0.5522  0.4627 -0.4755
17989THY    CM137041   8.428   2.121   7.340 -0.4719  0.2954 -0.5160
17989THY    HM137042   8.458   2.200   7.271 -2.8552 -0.1905  0.0609
17989THY    HM237043   8.435   2.030   7.280 -0.8528 -1.5497  0.6111
17989THY    HM337044   8.498   2.111   7.423 -0.6305  0.4212 -0.5978
17989THY    CA637045   8.215   2.245   7.295 -0.2160 -0.1261 -0.3326
17989THY    HA637046   8.271   2.296   7.217 -0.1977 -0.3536 -0.6958
17990THY      O37047   4.960   7.106   4.547  0.2951  0.1191  0.1934
17990THY     HO37048   4.875   7.153   4.551 -0.1913  2.0063 -0.7816
17990THY    CA137049   5.012   7.155   4.428  0.7053 -0.7790  0.2075
17990THY    CA237050   5.144   7.139   4.399 -0.7758 -0.1911  0.0505
17990THY    CP137051   5.245   7.067   4.484 -0.0593 -0.2466  0.0726
17990THY    HP137052   5.197   7.021   4.571 -3.6174 -1.1728  1.7014
17990THY    CP237053   5.355   7.179   4.512  0.0003  0.4727  0.9717
17990THY    HP237054   5.309   7.278   4.515 -2.0812  0.7794  0.0594
17990THY    HP337055   5.442   7.183   4.446  0.4107  1.0858  4.2252
17990THY    HP437056   5.397   7.148   4.609 -1.3890  0.4035 -1.4121
17990THY    CP337057   5.294   6.946   4.397 -0.2551 -0.2686 -0.3213
17990THY    HP537058   5.374   6.905   4.459 -0.0974 -1.1046 -1.3245
17990THY    HP637059   5.330   6.974   4.297 -0.5485 -0.2443  0.1616
17990THY    HP737060   5.206   6.881   4.397 -1.6381 -0.4902  1.4460
17990THY    CA337061   5.202   7.202   4.282  0.2402  0.1423  0.3556
17990THY    HA337062   5.307   7.201   4.252  0.3528  0.2238 -2.9780
17990THY    CA437063   5.114   7.269   4.191  0.0972 -0.4926 -0.8120
17990THY    HA437064   5.148   7.321   4.102 -2.7469 -0.0771  2.1457
17990THY    CA537065   4.976   7.283   4.224  0.0098 -0.8193 -0.1614
17990THY    CM137066   4.887   7.369   4.144 -0.2861 -0.7553  0.4169
17990THY    HM137067   4.781   7.359   4.172 -0.3208 -1.1007 -0.2287
17990THY    HM237068   4.910   7.348   4.039 -0.0308 -0.6578  0.2044
17990THY    HM337069   4.916   7.473   4.162 -3.2747  1.0895  1.0625
17990THY    CA637070   4.925   7.220   4.338 -0.0399  0.4349 -0.1320
17990THY    HA637071   4.819   7.224   4.361  0.3908  2.4962  1.6651
17991THY      O37072   1.893   8.418   2.396 -0.1800  0.5019 -0.6676
17991THY     HO37073   1.975   8.458   2.363 -0.4979 -0.1791 -0.5656
17991THY    CA137074   1.800   8.438   2.314  0.7218  0.1921 -0.1520
17991THY    CA237075   1.667   8.460   2.357 -0.2901 -0.2219 -0.1731
17991THY    CP137076   1.631   8.424   2.497  0.5097 -1.0423  0.0026
17991THY    HP137077   1.701   8.349   2.536 -0.5361  0.6411 -0.1524
17991THY    CP237078   1.506   8.342   2.503  0.6173 -0.2564  0.2143
17991THY    HP237079   1.423   8.413   2.502  2.0110  0.6466  1.9354
17991THY    HP337080   1.502   8.295   2.602  2.1579  0.0908  0.7835
17991THY    HP437081   1.487   8.269   2.423 -0.3546  0.2496 -0.1127
17991THY    CP337082   1.616   8.548   2.581  0.4006  0.4222 -0.5684
17991THY    HP537083   1.700   8.617   2.569 -0.9586 -0.4344  1.0182
17991THY    HP637084   1.590   8.529   2.686 -1.6063 -0.0701 -0.7988
17991THY    HP737085   1.532   8.607   2.543  0.5459 -0.6380 -1.0314
17991THY    CA337086   1.572   8.512   2.264  0.9619 -0.0294  0.5205
17991THY    HA337087   1.470   8.533   2.294  1.0724  2.2080 -1.6516
17991THY    CA437088   1.605   8.527   2.131 -1.2964  0.6639  0.1503
17991THY    HA437089   1.528   8.558   2.061 -3.2172  1.5647 -2.2705
17991THY    CA537090   1.737   8.504   2.086  0.2237  0.0560  1.1209
17991THY    CM137091   1.787   8.531   1.939  0.0309 -0.1557  0.4527
17991THY    HM137092   1.710   8.487   1.875  2.3569 -2.3805 -0.6040
17991THY    HM237093   1.884   8.488   1.915 -0.2330 -1.9954  0.7962
17991THY    HM337094   1.786   8.639   1.922 -1.8799 -1.2808  0.2992
17991THY    CA637095   1.833   8.461   2.183 -0.9686  0.4892  0.3521
17991THY    HA637096   1.932   8.435   2.145 -1.2438  0.2860 -0.4323
17992THY      O37097   3.242   4.062   6.954 -0.0765  0.2837  0.5208
17992THY     HO37098   3.210   4.094   6.868  1.2874  0.0319  1.2996
17992THY    CA137099   3.291   4.170   7.005  0.6537 -0.0534  0.0572
17992THY    CA237100   3.299   4.180   7.152  0.5892 -0.0542 -0.1296
17992THY    CP137101   3.270   4.063   7.239  0.7064  0.1050  0.0759
17992THY    HP137102   3.208   3.990   7.186 -0.0213  0.3513  0.5034
17992THY    CP237103   3.196   4.092   7.372  0.4508  0.9222  0.2199
17992THY    HP237104   3.239   4.179   7.424  0.7076 -2.0514  1.9950
17992THY    HP337105   3.200   4.014   7.449 -0.9287 -0.4314 -1.2602
17992THY    HP437106   3.092   4.120   7.351  1.4335  0.4010  4.0851
17992THY    CP337107   3.397   3.984   7.273 -0.0326 -0.0307 -0.1510
17992THY    HP537108   3.447   4.024   7.362 -1.6026  1.8661 -2.1599
17992THY    HP637109   3.456   3.994   7.181 -0.7194 -0.3922  0.7249
17992THY    HP737110   3.361   3.882   7.289 -0.8099 -2.1073 -0.2529
17992THY    CA337111   3.328   4.313   7.209  0.5219  0.1897  0.0900
17992THY    HA337112   3.321   4.329   7.317 -1.4815  0.5336 -2.4709
17992THY    CA437113   3.340   4.425   7.125 -0.0808  0.0235  0.6350
17992THY    HA437114   3.358   4.525   7.165  1.7476  1.0573 -0.0737
17992THY    CA537115   3.338   4.411   6.982 -0.1285 -1.0149 -0.6439
17992THY    CM137116   3.344   4.540   6.900  0.3865  0.3130 -0.1481
17992THY    HM137117   3.446   4.578   6.903  0.5951  2.1574 -0.7493
17992THY    HM237118   3.291   4.617   6.956  1.9934  1.2863  0.2903
17992THY    HM337119   3.296   4.521   6.803 -1.4763  0.9766  0.8964
17992THY    CA637120   3.307   4.289   6.926  0.2622 -0.5919  0.8599
17992THY    HA637121   3.293   4.286   6.818  2.6089 -1.1203  3.5094
17993THY      O37122   7.870   2.497   5.774 -0.7712  0.0435  0.0242
17993THY     HO37123   7.800   2.564   5.772  1.7168  2.4692  2.9337
17993THY    CA137124   7.826   2.388   5.706  0.1580 -0.6465 -0.6374
17993THY    CA237125   7.923   2.293   5.671 -0.0157 -0.2595  0.0298
17993THY    CP137126   8.066   2.303   5.720 -0.6167 -0.0446 -0.3692
17993THY    HP137127   8.074   2.351   5.817 -2.0106 -0.2629  0.3345
17993THY    CP237128   8.145   2.365   5.601 -0.3920  0.5325  0.0898
17993THY    HP237129   8.098   2.457   5.563 -1.9704  1.7552 -0.1586
17993THY    HP337130   8.142   2.287   5.524  1.0283  1.3147 -0.7585
17993THY    HP437131   8.249   2.388   5.627  0.0547 -0.4048 -0.8099
17993THY    CP337132   8.129   2.163   5.740  1.1579 -0.5745 -0.5078
17993THY    HP537133   8.057   2.110   5.803 -0.0026 -1.0813  0.4095
17993THY    HP637134   8.217   2.172   5.805  1.3810 -1.0101  0.6778
17993THY    HP737135   8.149   2.108   5.647  0.3279 -2.2759  1.8803
17993THY    CA337136   7.876   2.183   5.597  0.5749  0.0396  1.3838
17993THY    HA337137   7.944   2.109   5.557  0.6004  0.4675  1.1690
17993THY    CA437138   7.739   2.185   5.556 -0.0725  0.0431  0.4687
17993THY    HA437139   7.718   2.096   5.496 -0.1696  0.1826  0.3964
17993THY    CA537140   7.651   2.279   5.593  1.0512 -0.0308 -0.2856
17993THY    CM137141   7.502   2.268   5.549  0.8751 -0.8931  0.2185
17993THY    HM137142   7.476   2.167   5.517  1.1264 -0.2670 -0.0516
17993THY    HM237143   7.490   2.346   5.473  0.1207  0.7839  1.8278
17993THY    HM337144   7.445   2.302   5.636 -1.5997 -2.5125  0.4403
17993THY    CA637145   7.694   2.383   5.678 -0.0813 -0.3531  0.1113
17993THY    HA637146   7.617   2.456   5.701 -1.7425  0.5570 -1.8496
17994THY      O37147   6.866   1.315   4.116  0.3820  0.7541  0.6860
17994THY     HO37148   6.885   1.259   4.039 -0.8099  1.0229 -0.1249
17994THY    CA137149   6.760   1.260   4.163 -0.2119 -0.3371  0.5843
17994THY    CA237150   6.690   1.308   4.275 -0.1468  0.2421 -0.0762
17994THY    CP137151   6.733   1.441   4.340  0.7296 -0.1743  0.2737
17994THY    HP137152   6.793   1.499   4.269 -0.4921 -1.6205 -0.1618
17994THY    CP237153   6.812   1.416   4.471  0.1945  0.2462  0.1590
17994THY    HP237154   6.828   1.514   4.516  0.1608 -0.7431  0.6291
17994THY    HP337155   6.909   1.368   4.451 -0.2427  0.6458 -0.9310
17994THY    HP437156   6.748   1.357   4.537 -0.5550 -1.5176 -1.0866
17994THY    CP337157   6.611   1.532   4.359 -0.0173  1.1064  0.2765
17994THY    HP537158   6.536   1.511   4.282  2.5897 -0.8826 -2.5450
17994THY    HP637159   6.647   1.634   4.376  2.3696  3.1877 -0.7992
17994THY    HP737160   6.570   1.493   4.453 -2.1459 -0.3059 -1.0641
17994THY    CA337161   6.581   1.240   4.329  0.5635  0.0655  0.0817
17994THY    HA337162   6.514   1.283   4.402  0.5873  1.0673 -1.4968
17994THY    CA437163   6.546   1.119   4.267  0.3050  0.1329  0.6217
17994THY    HA437164   6.455   1.071   4.301  0.3324 -1.3735 -0.5850
17994THY    CA537165   6.617   1.065   4.153 -0.7709 -0.2756 -0.5110
17994THY    CM137166   6.581   0.936   4.102  0.5147 -0.0208 -0.5615
17994THY    HM137167   6.603   0.848   4.165  1.1554 -1.9432 -1.8352
17994THY    HM237168   6.629   0.921   4.005  0.9396  0.2718 -1.1593
17994THY    HM337169   6.472   0.934   4.089  0.5204 -0.0932 -0.3972
17994THY    CA637170   6.719   1.146   4.099 -0.4524 -1.1518  0.3550
17994THY    HA637171   6.776   1.101   4.018  0.7857 -0.2793  0.3240
17995THY      O37172   3.697   1.899   5.353  0.0937 -0.5221 -0.4972
17995THY     HO37173   3.685   1.848   5.434  0.2035 -1.8075 -2.7119
17995THY    CA137174   3.597   1.993   5.346  0.0734 -0.8418 -0.2148
17995THY    CA237175   3.596   2.105   5.259  0.0333  0.0078 -0.3327
17995THY    CP137176   3.701   2.128   5.154  0.1021 -0.0767  0.0399
17995THY    HP137177   3.789   2.067   5.182 -0.3661  0.2112 -0.5170
17995THY    CP237178   3.759   2.274   5.146  0.4639  0.3091 -0.0408
17995THY    HP237179   3.696   2.343   5.087 -0.0874 -0.8377 -1.4735
17995THY    HP337180   3.847   2.261   5.082 -0.1998 -0.5921 -0.1753
17995THY    HP437181   3.787   2.322   5.240 -0.8633  0.4339  0.5551
17995THY    CP337182   3.644   2.068   5.020  0.1445 -0.7885 -0.0681
17995THY    HP537183   3.556   2.127   4.993  1.6601 -1.4248  2.0260
17995THY    HP637184   3.625   1.960   5.021  3.5202 -2.3495 -0.8073
17995THY    HP737185   3.724   2.089   4.948  2.5177  1.1437 -1.8782
17995THY    CA337186   3.495   2.206   5.269  0.2412 -0.5090  0.2836
17995THY    HA337187   3.488   2.275   5.186 -1.0100 -0.6251  0.0461
17995THY    CA437188   3.403   2.202   5.377  0.0527  0.2096 -0.5021
17995THY    HA437189   3.340   2.288   5.397  0.4065  0.2629 -0.2537
17995THY    CA537190   3.402   2.093   5.467 -0.3062  1.0386  0.0729
17995THY    CM137191   3.309   2.094   5.581 -0.3242 -0.5354  0.3722
17995THY    HM137192   3.291   1.998   5.632  2.3013  2.8624  1.5022
17995THY    HM237193   3.213   2.137   5.550 -0.1392  1.7467  2.6519
17995THY    HM337194   3.343   2.175   5.646 -0.9788 -1.0572  1.0853
17995THY    CA637195   3.500   1.990   5.449  0.2304 -0.1237  0.4677
17995THY    HA637196   3.503   1.914   5.526 -1.6380 -0.5670 -0.1121
17996THY      O37197   3.825   1.552   7.472  0.3011 -0.0609  0.1975
17996THY     HO37198   3.918   1.545   7.502  0.1451  0.2594 -0.7280
17996THY    CA137199   3.830   1.495   7.354  0.4154  0.5601  0.7278
17996THY    CA237200   3.726   1.508   7.263  0.9799 -0.2917  0.5713
17996THY    CP137201   3.597   1.582   7.294 -0.0300  0.1332 -0.3981
17996THY    HP137202   3.605   1.607   7.401 -0.7273 -0.3399  2.1745
17996THY    CP237203   3.473   1.497   7.268  0.6219  0.6109  0.7328
17996THY    HP237204   3.445   1.497   7.162  0.3184  0.6814 -0.2803
17996THY    HP337205   3.384   1.526   7.326 -0.9095 -0.7641 -0.9865
17996THY    HP437206   3.489   1.390   7.283 -3.1545 -1.2927 -0.2501
17996THY    CP337207   3.577   1.718   7.235 -0.1532 -0.2193  0.2726
17996THY    HP537208   3.655   1.788   7.267 -1.4360  0.2547  1.5377
17996THY    HP637209   3.480   1.760   7.263  0.8928  1.8321  1.5114
17996THY    HP737210   3.574   1.721   7.126  3.4899 -0.4510 -0.3103
17996THY    CA337211   3.732   1.442   7.135  0.2233 -0.2196  0.2620
17996THY    HA337212   3.648   1.439   7.066 -0.9237  1.1749 -0.4182
17996THY    CA437213   3.853   1.378   7.106  0.1351  0.0451  0.6551
17996THY    HA437214   3.864   1.322   7.013  0.4917  0.7245 -0.4411
17996THY    CA537215   3.962   1.374   7.196 -0.2106  0.0991  0.1861
17996THY    CM137216   4.087   1.292   7.162 -0.0150 -0.0253  0.4804
17996THY    HM137217   4.111   1.210   7.232  0.3281 -0.4289  0.2284
17996THY    HM237218   4.175   1.352   7.137  1.8649  0.5711 -1.8319
17996THY    HM337219   4.060   1.233   7.074 -1.4985  1.2541 -0.8379
17996THY    CA637220   3.950   1.428   7.319  0.0121 -0.0420 -0.2004
17996THY    HA637221   4.033   1.439   7.389  0.1141 -0.2091  0.0984
17997THY      O37222   3.139   6.758   7.035  0.2308  0.1196  0.7240
17997THY     HO37223   3.104   6.681   6.988 -4.0834  3.1974  0.4547
17997THY    CA137224   3.247   6.714   7.102 -0.1149  0.5478  0.6629
17997THY    CA237225   3.340   6.796   7.168  0.2672 -0.3056 -0.5882
17997THY    CP137226   3.327   6.947   7.185  0.2801  0.4946  0.0054
17997THY    HP137227   3.232   6.988   7.147  1.6619 -2.4354  0.7291
17997THY    CP237228   3.447   7.021   7.115 -0.1764  0.3334  0.3516
17997THY    HP237229   3.475   6.973   7.021  0.0584 -0.7187  2.4274
17997THY    HP337230   3.538   7.023   7.177 -0.7254  1.2177 -0.8064
17997THY    HP437231   3.413   7.122   7.089 -1.2579 -0.4686 -0.2047
17997THY    CP337232   3.328   6.977   7.336 -0.2626 -1.1918 -0.1124
17997THY    HP537233   3.320   7.085   7.356 -0.5075  1.0328 -0.5100
17997THY    HP637234   3.412   6.937   7.393 -3.4440  2.5553 -2.1481
17997THY    HP737235   3.243   6.936   7.392  1.0069  0.0498 -1.1355
17997THY    CA337236   3.455   6.731   7.218 -0.5332 -0.3224 -0.2830
17997THY    HA337237   3.535   6.782   7.272 -1.3485 -0.7578  1.5470
17997THY    CA437238   3.461   6.599   7.221  0.7621 -0.1688  0.1117
17997THY    HA437239   3.549   6.552   7.265  0.4679 -0.7316 -1.0034
17997THY    CA537240   3.367   6.517   7.166  0.1392  0.2631  0.3162
17997THY    CM137241   3.397   6.368   7.151  0.2716  0.1401  0.7185
17997THY    HM137242   3.501   6.339   7.171 -0.4069  1.4465 -0.9790
17997THY    HM237243   3.375   6.335   7.049  0.7903  0.1458  0.3571
17997THY    HM337244   3.340   6.299   7.214  0.2903 -2.0518 -1.4453
17997THY    CA637245   3.258   6.573   7.099  0.5945  0.1428  0.2515
17997THY    HA637246   3.178   6.514   7.054 -0.0189  2.1568 -0.5615
17998THY      O37247   2.539   1.464   4.295  0.0810  0.2755 -0.2050
17998THY     HO37248   2.481   1.542   4.292  1.0951 -2.5857  0.5894
17998THY    CA137249   2.473   1.370   4.369  0.3356 -0.1849  0.4163
17998THY    CA237250   2.535   1.249   4.416  0.2261 -0.8196  0.1337
17998THY    CP137251   2.678   1.191   4.367  0.2802 -0.2769 -0.1551
17998THY    HP137252   2.752   1.270   4.349  0.6887 -0.7495 -0.6381
17998THY    CP237253   2.657   1.126   4.231 -0.0500 -0.2314 -0.2321
17998THY    HP237254   2.629   1.208   4.163 -0.3961  2.1417  1.7590
17998THY    HP337255   2.573   1.056   4.232  0.2766 -0.4550 -0.6251
17998THY    HP437256   2.746   1.077   4.191 -0.8349  0.1525 -2.0518
17998THY    CP337257   2.738   1.080   4.450  0.0261 -0.2153  0.5469
17998THY    HP537258   2.774   1.113   4.549 -1.9455  0.6792  0.1544
17998THY    HP637259   2.832   1.043   4.407  2.1494  4.6043 -0.4748
17998THY    HP737260   2.676   0.990   4.462 -0.1227 -0.9875  0.5447
17998THY    CA337261   2.460   1.172   4.507 -0.0935  0.0446  0.5204
17998THY    HA337262   2.503   1.078   4.542 -2.1535  2.8165  0.4850
17998THY    CA437263   2.332   1.199   4.545 -0.7918 -0.3719  0.3701
17998THY    HA437264   2.281   1.129   4.609 -1.8153  0.6497  1.9971
17998THY    CA537265   2.269   1.308   4.487 -0.0549  0.3141 -0.3895
17998THY    CM137266   2.128   1.334   4.524 -0.6670 -0.7596 -0.4812
17998THY    HM137267   2.105   1.305   4.627  0.5250 -0.7714 -1.5312
17998THY    HM237268   2.065   1.267   4.463 -0.0213 -2.2228  0.2042
17998THY    HM337269   2.100   1.440   4.521  4.6430 -0.5960  1.1960
17998THY    CA637270   2.341   1.396   4.398  0.1751  0.0297 -0.1517
17998THY    HA637271   2.290   1.475   4.344 -0.0310 -0.0527 -0.3398
17999THY      O37272   6.143   5.971   7.729 -0.2435 -0.5400  0.1734
17999THY     HO37273   6.172   5.900   7.668  2.1980  1.0447 -0.3151
17999THY    CA137274   6.166   6.082   7.651 -0.1023  0.7567  0.6690
17999THY    CA237275   6.118   6.211   7.687  0.2196 -0.8324 -0.4908
17999THY    CP137276   6.046   6.221   7.827  0.6887 -0.8209 -0.3775
17999THY    HP137277   6.028   6.128   7.882 -2.0983  1.7053  1.4570
17999THY    CP237278   5.901   6.265   7.816 -0.4356  0.1256 -0.6054
17999THY    HP237279   5.852   6.206   7.737  2.5174 -1.9461 -0.5072
17999THY    HP337280   5.896   6.372   7.792  0.9131  1.5254 -0.2018
17999THY    HP437281   5.848   6.249   7.911  0.2796  0.9512  1.5128
17999THY    CP337282   6.124   6.312   7.928 -0.2991  0.7138  0.4569
17999THY    HP537283   6.202   6.257   7.981 -0.2300 -0.7325 -0.9071
17999THY    HP637284   6.057   6.348   8.007 -0.8593  0.0471  0.9083
17999THY    HP737285   6.187   6.390   7.885  0.8760  0.1855 -0.7520
17999THY    CA337286   6.132   6.317   7.602  0.3230 -0.7980 -0.6732
17999THY    HA337287   6.076   6.408   7.622  0.1918  2.0133 -1.2776
17999THY    CA437288   6.206   6.298   7.485 -0.3107 -0.0464  0.0551
17999THY    HA437289   6.216   6.374   7.408  0.0852 -2.2979 -2.1358
17999THY    CA537290   6.251   6.171   7.444 -0.2653 -0.7005 -0.1701
17999THY    CM137291   6.305   6.144   7.305  0.0325  0.2274  0.3145
17999THY    HM137292   6.315   6.234   7.243 -0.7694  0.5506  0.6372
17999THY    HM237293   6.233   6.076   7.257  1.6324 -1.5254 -0.2141
17999THY    HM337294   6.402   6.094   7.308 -0.1924 -0.2683 -0.1617
17999THY    CA637295   6.228   6.063   7.528  0.1081 -0.2797  0.4832
17999THY    HA637296   6.243   5.963   7.488  0.5004 -3.7396  1.7620
18000THY      O37297   1.382   0.431   2.131 -0.4891  0.0786 -0.3738
18000THY     HO37298   1.436   0.351   2.117  1.7939  0.8782  0.9255
18000THY    CA137299   1.481   0.528   2.141  0.5157  0.4310  0.7151
18000THY    CA237300   1.453   0.651   2.207 -0.7242  0.3253  0.6514
18000THY    CP137301   1.317   0.675   2.264  0.4039  0.6396 -0.4483
18000THY    HP137302   1.235   0.626   2.210  0.2026 -0.3956  0.9327
18000THY    CP237303   1.280   0.826   2.269 -0.3535 -0.4397  0.1325
18000THY    HP237304   1.311   0.884   2.181  1.8300  1.2304  1.6741
18000THY    HP337305   1.324   0.889   2.347  1.1067 -1.2435  0.1690
18000THY    HP437306   1.171   0.828   2.278 -0.4591 -1.0566 -1.4001
18000THY    CP337307   1.301   0.620   2.405  0.1882 -0.8361 -0.2830
18000THY    HP537308   1.238   0.531   2.409 -1.9292 -1.2763  1.1062
18000THY    HP637309   1.235   0.687   2.462 -0.1781 -2.8898  1.2194
18000THY    HP737310   1.398   0.598   2.450 -0.8161  0.5026 -2.2089
18000THY    CA337311   1.570   0.743   2.213  0.2222  0.7281 -0.1876
18000THY    HA337312   1.558   0.839   2.262 -1.2630  0.5591 -0.2638
18000THY    CA437313   1.692   0.711   2.150  0.2708  0.3211  0.2168
18000THY    HA437314   1.773   0.782   2.135  1.2022 -1.8030 -1.1831
18000THY    CA537315   1.712   0.585   2.097 -0.5258 -0.4392  0.3885
18000THY    CM137316   1.847   0.558   2.029  0.2942 -0.2142 -0.2759
18000THY    HM137317   1.872   0.660   1.998  1.8353 -0.4629 -0.7050
18000THY    HM237318   1.833   0.498   1.938  1.0293 -1.7110  1.6968
18000THY    HM337319   1.919   0.508   2.094  0.8834 -0.7308 -0.1183
18000THY    CA637320   1.612   0.491   2.097 -0.7437  0.5899 -0.2751
18000THY    HA637321   1.642   0.390   2.070  2.8920 -1.1617  1.0737
18001THY      O37322   4.790   7.154   7.705  0.3962  0.0845 -0.0233
18001THY     HO37323   4.815   7.105   7.786 -1.5689  0.8876  0.2009
18001THY    CA137324   4.877   7.254   7.692  0.0010 -0.7034 -0.3929
18001THY    CA237325   4.877   7.345   7.583  0.0951 -0.4144 -0.1300
18001THY    CP137326   4.768   7.325   7.476 -0.1906  0.9677 -0.1500
18001THY    HP137327   4.712   7.233   7.498  1.8125  1.2731 -1.3669
18001THY    CP237328   4.821   7.315   7.332  0.0356  0.2592  0.7609
18001THY    HP237329   4.884   7.225   7.332 -0.4815 -2.8621  0.2728
18001THY    HP337330   4.869   7.407   7.299  0.1507 -0.5006  0.4367
18001THY    HP437331   4.738   7.289   7.265  1.4080 -0.9501 -0.7230
18001THY    CP337332   4.674   7.444   7.483  0.5781 -0.5075 -0.3696
18001THY    HP537333   4.588   7.427   7.416  0.5928 -0.6841  0.2260
18001THY    HP637334   4.716   7.541   7.455 -3.0739  1.4426  2.0071
18001THY    HP737335   4.646   7.448   7.589  0.3013 -0.5829 -0.2577
18001THY    CA337336   4.967   7.452   7.587 -0.0700  0.3241  0.4023
18001THY    HA337337   4.964   7.521   7.503 -0.5527  0.0597  0.0715
18001THY    CA437338   5.070   7.453   7.678 -0.3520  0.9840 -0.2198
18001THY    HA437339   5.151   7.524   7.666 -0.3077 -1.0714 -0.5565
18001THY    CA537340   5.078   7.351   7.775 -0.7278 -0.1819 -0.1537
18001THY    CM137341   5.191   7.371   7.880 -0.0058 -0.1778  0.0488
18001THY    HM137342   5.178   7.314   7.973  1.0627 -0.4957 -0.7496
18001THY    HM237343   5.203   7.473   7.917 -1.1062 -0.9387  0.4737
18001THY    HM337344   5.284   7.328   7.840 -0.5844  0.2968 -1.7502
18001THY    CA637345   4.972   7.260   7.796  0.4834 -0.4828 -0.0074
18001THY    HA637346   4.977   7.195   7.883 -1.8153  0.7943  1.3689
18002THY      O37347   3.349   5.716   6.165 -0.0582  0.4522  0.2077
18002THY     HO37348   3.442   5.688   6.168 -0.0907 -0.6374 -0.0840
18002THY    CA137349   3.354   5.843   6.113 -0.4243 -0.0122  0.3360
18002THY    CA237350   3.247   5.936   6.116 -0.1522  0.4138  0.0836
18002THY    CP137351   3.110   5.892   6.160 -0.4330 -0.0981 -0.3810
18002THY    HP137352   3.087   5.789   6.130 -0.5826 -1.6589  0.0795
18002THY    CP237353   3.005   5.966   6.088 -0.2705  0.3144 -0.2590
18002THY    HP237354   2.909   5.917   6.109 -0.2567  0.4787 -0.2182
18002THY    HP337355   3.020   5.949   5.981 -1.5855  0.1714 -0.6624
18002THY    HP437356   2.993   6.072   6.111  0.3043  2.7131 -0.6588
18002THY    CP337357   3.080   5.902   6.306  0.2823 -0.5330 -0.0875
18002THY    HP537358   3.053   6.005   6.332 -0.8008 -0.2088 -0.4403
18002THY    HP637359   3.158   5.871   6.377  0.9079 -1.2708 -0.2212
18002THY    HP737360   2.990   5.842   6.326 -1.5243 -0.8776  2.3656
18002THY    CA337361   3.277   6.069   6.072 -0.2567  0.0017  0.0614
18002THY    HA337362   3.203   6.149   6.079  0.4702 -1.3088  0.8700
18002THY    CA437363   3.409   6.105   6.042  0.4091 -0.2239 -0.6294
18002THY    HA437364   3.442   6.206   6.017  1.5235 -0.0900 -0.9397
18002THY    CA537365   3.512   6.011   6.036  0.1358 -0.4971  0.7416
18002THY    CM137366   3.649   6.045   5.993  0.0178 -0.6563  0.1161
18002THY    HM137367   3.709   5.954   5.985 -0.6986  2.3028 -0.7316
18002THY    HM237368   3.687   6.117   6.066 -1.2342  0.5033 -0.3516
18002THY    HM337369   3.637   6.089   5.893 -0.3316  0.5606  2.9939
18002THY    CA637370   3.483   5.878   6.075 -1.1077  0.1712  0.0846
18002THY    HA637371   3.556   5.799   6.067 -1.7870  0.8331 -0.6250
18003THY      O37372   2.267   9.374   8.075  0.0503 -0.4838  0.0368
18003THY     HO37373   2.357   9.411   8.074 -0.3779  1.8397  1.3295
18003THY    CA137374   2.248   9.287   7.975 -0.4241  0.0339 -0.3872
18003THY    CA237375   2.114   9.258   7.925  0.2442  0.4651 -0.0108
18003THY    CP137376   1.992   9.324   7.999  0.5351 -0.4808 -0.2273
18003THY    HP137377   2.017   9.405   8.069  1.6960 -1.7208  0.5346
18003THY    CP237378   1.934   9.210   8.094 -0.1546  0.6153  1.0951
18003THY    HP237379   1.898   9.125   8.035  2.2634 -1.2160  1.2436
18003THY    HP337380   1.858   9.261   8.155 -0.3808  0.5534  0.8332
18003THY    HP437381   2.008   9.167   8.161  1.6039 -2.0539 -0.3045
18003THY    CP337382   1.885   9.372   7.905 -0.8513 -0.1992 -0.1806
18003THY    HP537383   1.823   9.429   7.975  1.0124  0.2278  1.4198
18003THY    HP637384   1.839   9.286   7.855  2.0815 -0.5411 -1.6987
18003THY    HP737385   1.922   9.443   7.831  0.1819 -0.3960 -0.8962
18003THY    CA337386   2.099   9.175   7.812  0.1658 -0.3874  0.0071
18003THY    HA337387   2.005   9.151   7.764  1.0468 -2.0852 -0.1937
18003THY    CA437388   2.213   9.117   7.754  0.2533  0.3716 -0.9482
18003THY    HA437389   2.198   9.054   7.667 -1.0891  0.2432 -0.4898
18003THY    CA537390   2.342   9.140   7.799 -0.2058  0.2146 -0.4403
18003THY    CM137391   2.454   9.072   7.735  0.1320  0.0955  0.4758
18003THY    HM137392   2.428   9.066   7.628 -0.5730  0.3284 -1.4650
18003THY    HM237393   2.466   8.965   7.758  1.7288  2.2454  1.0666
18003THY    HM337394   2.547   9.126   7.757  1.0521  0.0003 -0.9980
18003THY    CA637395   2.359   9.224   7.910 -0.1672 -0.9809 -0.2153
18003THY    HA637396   2.463   9.226   7.942  0.0968 -1.8238 -0.0160
18004THY      O37397   5.651   3.783   4.040 -0.1726  0.2931 -0.2636
18004THY     HO37398   5.738   3.824   4.051  0.7290 -2.9594 -0.9488
18004THY    CA137399   5.669   3.659   4.083 -0.5525 -0.0996  0.4869
18004THY    CA237400   5.564   3.567   4.109 -0.5575  0.9907  0.2930
18004THY    CP137401   5.419   3.625   4.099 -0.4544 -0.2120  0.1874
18004THY    HP137402   5.411   3.722   4.049 -2.6813 -1.3557 -0.5178
18004THY    CP237403   5.372   3.635   4.245 -0.4988 -0.0216  0.6457
18004THY    HP237404   5.399   3.736   4.277  1.7759 -1.4011  0.5533
18004THY    HP337405   5.414   3.554   4.305 -1.5471  0.3414  0.3605
18004THY    HP437406   5.264   3.618   4.243 -0.2575 -0.5777 -1.0723
18004THY    CP337407   5.331   3.532   4.011  1.0057 -0.4067  0.1202
18004THY    HP537408   5.394   3.505   3.926  1.8086 -0.0635  0.8343
18004THY    HP637409   5.238   3.578   3.975  0.8620 -0.8752 -0.5367
18004THY    HP737410   5.305   3.437   4.060 -0.6605 -0.3953  0.5404
18004THY    CA337411   5.590   3.437   4.139 -0.9971 -0.0517  0.1093
18004THY    HA337412   5.509   3.370   4.164  0.3632 -0.5932 -1.8044
18004THY    CA437413   5.723   3.393   4.149 -0.2418 -0.2419  0.2099
18004THY    HA437414   5.737   3.288   4.174 -0.7706  1.2192  0.4566
18004THY    CA537415   5.831   3.485   4.129  0.3270 -0.0347  0.2765
18004THY    CM137416   5.968   3.437   4.139 -1.1294 -0.2227  0.1944
18004THY    HM137417   6.028   3.519   4.180 -0.8691 -0.0422 -0.0854
18004THY    HM237418   6.017   3.416   4.043  2.2508  1.5833 -0.9175
18004THY    HM337419   5.985   3.358   4.212 -1.3291 -0.8106 -0.3997
18004THY    CA637420   5.809   3.618   4.098  0.5348  0.8830  0.0341
18004THY    HA637421   5.892   3.685   4.079  0.6412  1.2870  0.0172
18005THY      O37422   7.038   4.921   4.625 -0.3142  0.7719  0.3358
18005THY     HO37423   7.101   4.867   4.676 -0.8294 -2.0619 -3.3945
18005THY    CA137424   6.950   4.837   4.573  0.0604  0.0215  0.0721
18005THY    CA237425   6.844   4.884   4.490 -0.2587  0.3343  0.3463
18005THY    CP137426   6.825   5.033   4.468 -0.1042 -0.4529 -0.5670
18005THY    HP137427   6.880   5.095   4.539  1.8210 -0.5787 -2.0481
18005THY    CP237428   6.672   5.073   4.462  0.3648  0.1430 -0.0133
18005THY    HP237429   6.617   5.028   4.546 -3.4412 -1.3602  1.3957
18005THY    HP337430   6.618   5.041   4.372  0.9050 -0.0671 -0.3411
18005THY    HP437431   6.655   5.180   4.480  2.9151  1.3320  0.2550
18005THY    CP337432   6.889   5.070   4.333 -0.1874 -0.1077 -0.0390
18005THY    HP537433   6.997   5.049   4.328  0.5585  1.4395  2.8024
18005THY    HP637434   6.874   5.176   4.307 -1.8746 -1.4443 -0.5694
18005THY    HP737435   6.846   5.008   4.254  1.5149 -0.6315 -0.6259
18005THY    CA337436   6.759   4.777   4.436 -0.8638 -0.6998 -0.0480
18005THY    HA337437   6.683   4.816   4.369  0.8305 -2.3870  0.5140
18005THY    CA437438   6.783   4.643   4.456  0.4745  0.0561  0.6727
18005THY    HA437439   6.722   4.569   4.405 -0.0016 -0.4797  1.4191
18005THY    CA537440   6.886   4.605   4.545 -0.5162  0.1690  0.1346
18005THY    CM137441   6.908   4.454   4.575  1.0202 -0.0395  0.2819
18005THY    HM137442   7.004   4.414   4.540  0.6280 -0.4346 -0.3275
18005THY    HM237443   6.823   4.404   4.527  1.0254 -0.5532  0.7494
18005THY    HM337444   6.899   4.432   4.681  0.5409 -0.2822 -0.7220
18005THY    CA637445   6.968   4.702   4.600 -0.8565 -0.3797  0.6670
18005THY    HA637446   7.051   4.667   4.661 -2.5358 -0.0047 -3.1106
18006THY      O37447   2.025   3.312   3.892  0.6132  0.4850  0.0871
18006THY     HO37448   2.043   3.291   3.799 -2.1150 -0.5139  1.7467
18006THY    CA137449   1.929   3.221   3.920  0.0228 -0.1068 -0.3272
18006THY    CA237450   1.907   3.181   4.053  0.8970 -0.3226  0.7269
18006THY    CP137451   1.991   3.239   4.173  0.6710  0.1056  0.4933
18006THY    HP137452   2.073   3.297   4.129  0.8889 -1.7256 -1.1030
18006THY    CP237453   2.054   3.137   4.267 -0.0761 -0.7990  0.0194
18006THY    HP237454   2.108   3.067   4.203  0.5785 -1.8302  1.4110
18006THY    HP337455   1.983   3.076   4.324  1.3911 -0.7179 -1.7010
18006THY    HP437456   2.130   3.191   4.325  1.3239 -0.8436 -1.8047
18006THY    CP337457   1.897   3.334   4.263  0.4721  0.3849 -0.3319
18006THY    HP537458   1.859   3.414   4.197  1.4037  0.5461  0.2549
18006THY    HP637459   1.952   3.379   4.346 -1.3311  1.1438  0.6005
18006THY    HP737460   1.799   3.304   4.301 -0.4467  0.6008  2.5981
18006THY    CA337461   1.807   3.086   4.073 -0.2332  0.0734  0.1088
18006THY    HA337462   1.803   3.034   4.168 -0.1049  0.0231  0.0069
18006THY    CA437463   1.721   3.044   3.968 -0.1872 -0.3271  0.3659
18006THY    HA437464   1.638   2.976   3.987  0.8882  1.3056 -0.5698
18006THY    CA537465   1.751   3.084   3.837 -0.3204 -0.3698  0.4491
18006THY    CM137466   1.656   3.049   3.717 -0.3805 -0.3495  0.1807
18006THY    HM137467   1.599   2.956   3.735 -2.4252  0.2913  1.4850
18006THY    HM237468   1.719   3.027   3.630  0.6623  0.2858  0.6075
18006THY    HM337469   1.593   3.136   3.696 -1.8224  2.4853 -0.0648
18006THY    CA637470   1.854   3.178   3.816  0.2038 -0.5976  0.0318
18006THY    HA637471   1.875   3.218   3.717 -1.7222 -0.2653  2.0986
18007THY      O37472   8.102   0.816   3.568  0.2586 -0.4448  0.0987
18007THY     HO37473   8.028   0.876   3.546  0.4910 -2.8614 -0.4135
18007THY    CA137474   8.051   0.768   3.687  0.9245  0.1521  0.5885
18007THY    CA237475   8.111   0.661   3.756 -0.0345 -0.3919 -0.4338
18007THY    CP137476   8.240   0.592   3.697  1.1990 -0.2044 -0.5404
18007THY    HP137477   8.253   0.606   3.589  2.5492  0.1531  1.2632
18007THY    CP237478   8.225   0.444   3.709 -0.5403  0.2871  0.4777
18007THY    HP237479   8.298   0.397   3.641 -2.7789 -0.2241 -2.5961
18007THY    HP337480   8.129   0.398   3.680  0.5173  1.3588 -2.6970
18007THY    HP437481   8.248   0.414   3.812 -0.5929  0.4914  1.1158
18007THY    CP337482   8.360   0.656   3.764  0.0598 -0.2610 -0.1240
18007THY    HP537483   8.364   0.626   3.870  1.7309 -0.6677 -1.5517
18007THY    HP637484   8.361   0.764   3.748  1.7384 -1.4429 -0.2726
18007THY    HP737485   8.455   0.625   3.718  0.2007 -0.4972  0.6503
18007THY    CA337486   8.056   0.613   3.876 -0.2188  0.0058  0.4847
18007THY    HA337487   8.111   0.537   3.931 -1.7316  0.8019 -0.0617
18007THY    CA437488   7.938   0.675   3.919  0.1480  0.7041 -0.4585
18007THY    HA437489   7.891   0.636   4.008 -1.4887  0.7568  1.4954
18007THY    CA537490   7.875   0.778   3.847 -0.2415 -0.1157 -0.2548
18007THY    CM137491   7.750   0.848   3.902  0.5990 -0.6185  0.3112
18007THY    HM137492   7.683   0.771   3.942 -0.7929  1.0033  2.2545
18007THY    HM237493   7.708   0.911   3.823 -0.4101  0.8353  1.5611
18007THY    HM337494   7.793   0.921   3.971 -0.0276 -0.0936  0.1965
18007THY    CA637495   7.934   0.825   3.728  0.0090 -0.3395 -0.5082
18007THY    HA637496   7.885   0.894   3.659 -0.5564  0.9464  0.4040
18008THY      O37497   4.796   3.946   2.301  0.2161 -0.0438 -0.4801
18008THY     HO37498   4.890   3.949   2.327  0.5431 -1.2320  1.7729
18008THY    CA137499   4.729   3.861   2.374  0.0437 -0.3963  1.1137
18008THY    CA237500   4.596   3.813   2.352 -0.8053 -0.1238 -0.2008
18008THY    CP137501   4.537   3.864   2.216  1.1797  0.4741  0.4304
18008THY    HP137502   4.615   3.903   2.150 -0.8369 -0.7133  2.6963
18008THY    CP237503   4.438   3.976   2.240 -0.3620 -0.3582 -0.4817
18008THY    HP237504   4.339   3.940   2.271  0.0694 -0.3801 -1.7276
18008THY    HP337505   4.439   4.037   2.149  0.2945  0.3044  0.5216
18008THY    HP437506   4.468   4.026   2.332 -0.7299 -0.6512  0.2983
18008THY    CP337507   4.471   3.752   2.134 -0.5184 -0.1050  0.1505
18008THY    HP537508   4.380   3.708   2.176  0.0004 -0.0956 -0.9602
18008THY    HP637509   4.541   3.668   2.127 -0.0508 -1.1595  0.6113
18008THY    HP737510   4.451   3.790   2.033 -2.4112  0.9880  2.3260
18008THY    CA337511   4.537   3.722   2.437  0.2087  0.1613 -0.3181
18008THY    HA337512   4.431   3.702   2.419 -1.3591  2.8894  4.0830
18008THY    CA437513   4.606   3.691   2.561 -0.0014 -0.1813 -0.2722
18008THY    HA437514   4.558   3.630   2.636 -1.8230 -1.1996 -0.1705
18008THY    CA537515   4.733   3.737   2.586  0.7884 -0.8154 -0.5548
18008THY    CM137516   4.811   3.696   2.710 -0.4231  0.3223  0.3294
18008THY    HM137517   4.771   3.755   2.794  3.3490  0.9246  2.3532
18008THY    HM237518   4.914   3.733   2.705 -0.0914  1.1982 -0.4290
18008THY    HM337519   4.795   3.592   2.740 -2.6638  0.8179  0.7647
18008THY    CA637520   4.791   3.822   2.493  0.3128  0.0727 -0.1563
18008THY    HA637521   4.888   3.862   2.522 -0.5200  0.5933  1.6220
18009THY      O37522   3.946   1.870   5.698  0.8478 -0.9292  0.1995
18009THY     HO37523   3.990   1.810   5.760  0.7527 -0.8017  0.2591
18009THY    CA137524   4.013   1.989   5.703  0.0635  0.8024 -0.3367
18009THY    CA237525   3.943   2.106   5.691 -0.4188  0.1290 -0.1844
18009THY    CP137526   3.799   2.109   5.653 -0.2636 -0.3690 -0.5078
18009THY    HP137527   3.767   2.008   5.625  0.2430 -3.5061  0.0881
18009THY    CP237528   3.761   2.202   5.532 -0.2386 -0.6040 -0.2748
18009THY    HP237529   3.817   2.295   5.545 -0.4157 -3.4608  0.3104
18009THY    HP337530   3.652   2.220   5.533 -0.1797  1.2267  0.1735
18009THY    HP437531   3.791   2.148   5.442 -1.6260 -1.0639 -0.3420
18009THY    CP337532   3.698   2.150   5.759 -0.6197 -0.3193  0.0397
18009THY    HP537533   3.713   2.086   5.847 -1.0919  0.6358  1.1823
18009THY    HP637534   3.594   2.138   5.728 -0.4351 -1.2325  0.7291
18009THY    HP737535   3.705   2.251   5.801 -2.3738  1.1952 -0.4082
18009THY    CA337536   4.010   2.226   5.719  0.1431 -0.3905  0.1392
18009THY    HA337537   3.955   2.319   5.709  0.0178 -0.4745  0.0573
18009THY    CA437538   4.140   2.225   5.750 -0.5808 -0.0528 -0.0036
18009THY    HA437539   4.200   2.313   5.774  0.0592  1.1241 -0.7237
18009THY    CA537540   4.217   2.104   5.745 -0.0638  0.5594  0.2832
18009THY    CM137541   4.366   2.109   5.759 -0.7740 -0.3674  1.1164
18009THY    HM137542   4.404   2.038   5.834 -3.4296  1.5627  1.5929
18009THY    HM237543   4.392   2.209   5.795 -1.2189 -1.8643  1.8015
18009THY    HM337544   4.415   2.099   5.661  0.6397  0.4615 -0.7481
18009THY    CA637545   4.151   1.982   5.731  1.4713 -0.1048  0.0976
18009THY    HA637546   4.202   1.886   5.734  0.6252 -0.8181 -0.3908
18010THY      O37547   1.981   1.361   2.525 -0.2741  0.3150  0.2295
18010THY     HO37548   2.000   1.396   2.436  0.8792 -0.1566 -1.4240
18010THY    CA137549   1.940   1.237   2.505  0.0615 -0.0697 -0.8566
18010THY    CA237550   1.828   1.185   2.574  0.0619 -0.0957 -0.3545
18010THY    CP137551   1.764   1.259   2.694  0.1581 -0.2524 -0.4181
18010THY    HP137552   1.763   1.367   2.675  3.2389 -0.3187 -0.3138
18010THY    CP237553   1.857   1.237   2.816  0.1562 -0.1820 -0.1309
18010THY    HP237554   1.864   1.133   2.850  0.3439 -1.7361 -0.6500
18010THY    HP337555   1.833   1.301   2.902 -1.3245 -0.2445 -0.5751
18010THY    HP437556   1.956   1.268   2.782 -0.5296 -1.3563  0.8795
18010THY    CP337557   1.618   1.217   2.739 -0.1955 -0.1104  0.7216
18010THY    HP537558   1.613   1.113   2.774 -0.8993 -0.7764  0.5246
18010THY    HP637559   1.542   1.227   2.661 -3.4156  1.9409 -3.8619
18010THY    HP737560   1.582   1.274   2.826  0.1167  0.5615 -0.0786
18010THY    CA337561   1.767   1.073   2.530 -0.5845  0.0977  0.1968
18010THY    HA337562   1.677   1.036   2.578 -1.8757 -1.9786  0.5067
18010THY    CA437563   1.819   1.012   2.421 -0.6822  0.0952  0.6613
18010THY    HA437564   1.780   0.919   2.381 -0.7622  1.4094  0.1146
18010THY    CA537565   1.941   1.046   2.357 -0.2965  0.0673 -0.8651
18010THY    CM137566   1.998   0.974   2.233  0.6882 -0.0797  0.1212
18010THY    HM137567   1.979   0.866   2.241 -0.5649  0.4988  0.3644
18010THY    HM237568   2.103   1.005   2.226  0.3820 -0.4445  1.1268
18010THY    HM337569   1.967   1.010   2.134  1.2564  0.5963  2.7056
18010THY    CA637570   1.992   1.170   2.401 -0.3210  0.3660 -0.6459
18010THY    HA637571   2.082   1.200   2.349  0.0409  1.4906  0.2673
18011THY      O37572   4.651   6.342   5.091 -0.8317 -0.4376 -0.7087
18011THY     HO37573   4.607   6.421   5.127  0.7223 -0.2520  0.1142
18011THY    CA137574   4.772   6.331   5.149 -0.5832  1.0331 -0.1689
18011THY    CA237575   4.855   6.226   5.102 -0.1475  0.3611  0.3698
18011THY    CP137576   4.805   6.132   4.995 -0.3935  1.1184 -0.0177
18011THY    HP137577   4.704   6.152   4.960 -0.0347 -1.3583 -1.9800
18011THY    CP237578   4.808   5.989   5.041  1.0939 -0.9511 -0.1774
18011THY    HP237579   4.728   5.959   5.110  0.9983 -1.7399 -1.8676
18011THY    HP337580   4.910   5.966   5.075  0.5221  0.1312 -1.2162
18011THY    HP437581   4.793   5.920   4.956 -2.3568 -2.0483  1.6793
18011THY    CP337582   4.898   6.162   4.872 -0.0246  0.2247  0.3125
18011THY    HP537583   4.859   6.113   4.782 -0.0563  0.3394  0.1265
18011THY    HP637584   4.997   6.117   4.883  1.0050 -1.9771  1.8550
18011THY    HP737585   4.901   6.267   4.839  0.2960 -0.2968  0.1449
18011THY    CA337586   4.992   6.219   5.151  0.4376  0.2024  0.0986
18011THY    HA337587   5.057   6.139   5.117  0.8110 -1.1232  0.9342
18011THY    CA437588   5.036   6.319   5.237 -0.0208  0.5825  0.6591
18011THY    HA437589   5.137   6.318   5.278 -0.5705  2.0874 -1.6183
18011THY    CA537590   4.952   6.425   5.277  0.0551 -0.2540  0.0779
18011THY    CM137591   4.996   6.527   5.373 -0.5275 -0.3280  0.0311
18011THY    HM137592   4.946   6.517   5.470 -0.9947 -0.5352  0.2869
18011THY    HM237593   4.968   6.624   5.329 -3.4804 -1.2545 -1.1379
18011THY    HM337594   5.104   6.531   5.390 -0.4649 -0.2118 -1.6651
18011THY    CA637595   4.818   6.426   5.241  0.0969  1.0639  0.8096
18011THY    HA637596   4.743   6.493   5.283 -0.7367  0.5825  0.1889
18012THY      O37597   7.395   5.367   4.767 -0.8911  0.2345 -0.3943
18012THY     HO37598   7.346   5.429   4.709  1.3544 -1.2079  0.1361
18012THY    CA137599   7.367   5.404   4.891  1.6701 -1.2929  1.3066
18012THY    CA237600   7.463   5.374   4.992  0.0892 -0.3538  0.1601
18012THY    CP137601   7.601   5.299   4.966  0.0613 -0.7950 -0.5868
18012THY    HP137602   7.570   5.219   4.898  0.5068 -0.0492 -1.4111
18012THY    CP237603   7.669   5.237   5.090 -0.5929 -0.2215  0.1421
18012THY    HP237604   7.677   5.304   5.177  3.0429 -0.2501 -0.0641
18012THY    HP337605   7.774   5.216   5.068 -0.0208  0.8775  1.6185
18012THY    HP437606   7.617   5.146   5.122 -0.9275  1.1341  0.7843
18012THY    CP337607   7.709   5.397   4.904  0.3247  0.0166 -0.0160
18012THY    HP537608   7.753   5.453   4.987 -0.7121 -0.7674  2.0448
18012THY    HP637609   7.668   5.457   4.823 -0.5050  1.4217  1.3766
18012THY    HP737610   7.782   5.327   4.862 -0.7734 -0.9359 -0.6390
18012THY    CA337611   7.429   5.429   5.120  0.1915  0.4007  0.3331
18012THY    HA337612   7.500   5.425   5.202 -1.6415  2.2004  2.1918
18012THY    CA437613   7.311   5.499   5.134  0.5048 -0.6680  0.1432
18012THY    HA437614   7.289   5.550   5.227  0.1661  0.0686 -1.2824
18012THY    CA537615   7.218   5.510   5.032 -0.1254 -0.4245  0.6627
18012THY    CM137616   7.086   5.591   5.039  0.2886 -0.0532  0.4614
18012THY    HM137617   7.028   5.555   4.954 -2.5775  1.4884  1.1374
18012THY    HM237618   7.100   5.700   5.046 -0.1542  1.6664  0.4334
18012THY    HM337619   7.029   5.563   5.129 -0.2838 -0.6163 -0.2226
18012THY    CA637620   7.247   5.466   4.904  0.0526 -0.0349 -0.8706
18012THY    HA637621   7.174   5.478   4.824 -0.3280  0.4966  0.4950
18013THY      O37622   4.369   8.352   5.034 -0.1220  0.1884  0.4279
18013THY     HO37623   4.413   8.437   5.018 -0.3436 -1.5312  0.2586
18013THY    CA137624   4.267   8.353   4.944  0.1106 -0.0897 -0.4616
18013THY    CA237625   4.143   8.301   4.978  0.2359 -0.2414  0.6852
18013THY    CP137626   4.112   8.228   5.116 -0.7564 -0.0182 -0.1693
18013THY    HP137627   4.199   8.250   5.178 -1.5924  0.5637  1.7076
18013THY    CP237628   4.101   8.071   5.106 -1.1634  0.5201 -0.1325
18013THY    HP237629   4.043   8.042   5.194  0.3611  1.1082 -1.5152
18013THY    HP337630   4.193   8.014   5.117 -1.2403  0.8161 -0.2007
18013THY    HP437631   4.046   8.034   5.019 -0.4751  0.6212 -1.4464
18013THY    CP337632   3.983   8.285   5.182  0.1711 -1.0600 -0.5415
18013THY    HP537633   3.888   8.262   5.133 -0.2244 -0.0386 -1.1553
18013THY    HP637634   3.983   8.393   5.197  0.5641 -1.2203 -0.5223
18013THY    HP737635   3.975   8.235   5.280 -1.8543 -1.0828 -0.3677
18013THY    CA337636   4.044   8.305   4.883 -0.2004 -0.0362  0.7645
18013THY    HA337637   3.949   8.254   4.897  0.3712 -0.9414 -0.5884
18013THY    CA437638   4.078   8.352   4.757 -0.7670  0.0888  0.1604
18013THY    HA437639   4.013   8.349   4.670 -2.1631  0.9810  2.0792
18013THY    CA537640   4.195   8.414   4.724  0.2042 -0.1306 -0.0738
18013THY    CM137641   4.216   8.480   4.586  0.2198  0.5470  0.5562
18013THY    HM137642   4.248   8.583   4.602 -2.5256  0.0368  1.5831
18013THY    HM237643   4.127   8.480   4.521  0.0477  0.7733  1.3510
18013THY    HM337644   4.300   8.427   4.540  2.2318  1.3856  2.8722
18013THY    CA637645   4.288   8.424   4.822 -0.2396 -0.6066  0.5440
18013THY    HA637646   4.379   8.481   4.804  1.0078  1.0714 -0.8064
18014THY      O37647   0.538   2.400   3.863 -0.3484 -0.1550  0.0680
18014THY     HO37648   0.628   2.387   3.828  0.0374 -0.0645  2.1865
18014THY    CA137649   0.456   2.427   3.762 -0.1050 -0.4180  0.0178
18014THY    CA237650   0.312   2.417   3.771  0.0364 -0.8285 -0.2510
18014THY    CP137651   0.255   2.364   3.896  1.1193  0.8259  0.5405
18014THY    HP137652   0.317   2.280   3.928  1.1548  0.9448  0.6114
18014THY    CP237653   0.116   2.302   3.893  0.1212 -0.1885 -0.2572
18014THY    HP237654   0.114   2.226   3.972 -3.4257 -0.0683 -0.1936
18014THY    HP337655   0.102   2.243   3.801  0.6380  0.7797 -1.9631
18014THY    HP437656   0.038   2.374   3.919 -0.3450  0.4666 -0.9809
18014THY    CP337657   0.264   2.458   4.010 -0.4751  0.2538  0.0881
18014THY    HP537658   0.355   2.519   4.013  0.4494 -0.3736 -1.2058
18014THY    HP637659   0.257   2.399   4.102 -1.1424  0.9107  1.1422
18014THY    HP737660   0.178   2.526   4.018 -0.5493 -0.8053  0.1398
18014THY    CA337661   0.238   2.457   3.664  0.5204  0.1140 -0.4042
18014THY    HA337662   0.131   2.450   3.679  0.2769 -1.4307 -0.3264
18014THY    CA437663   0.293   2.511   3.550  0.4492  0.7032 -0.0261
18014THY    HA437664   0.238   2.567   3.474  0.4032  0.9455  0.2576
18014THY    CA537665   0.432   2.508   3.541 -0.1270  0.2701 -0.2000
18014THY    CM137666   0.490   2.558   3.408  0.5551 -1.0108  0.1413
18014THY    HM137667   0.426   2.556   3.319  0.2915 -0.8560  1.0456
18014THY    HM237668   0.581   2.499   3.391 -0.0775 -0.4765 -1.0236
18014THY    HM337669   0.532   2.657   3.431  0.6948 -0.3451 -0.0645
18014THY    CA637670   0.515   2.474   3.648  0.2516 -0.1743  0.2578
18014THY    HA637671   0.620   2.493   3.628  1.0676  1.1231 -2.3923
18015THY      O37672   7.812   6.429   4.940  0.1703  0.1188  0.1796
18015THY     HO37673   7.821   6.487   4.863  0.1877 -0.0787 -0.0822
18015THY    CA137674   7.792   6.306   4.888 -0.3671 -0.9325  0.3258
18015THY    CA237675   7.856   6.187   4.939  0.2835 -0.7203  0.2788
18015THY    CP137676   7.942   6.187   5.072  0.2681  0.7169 -0.6644
18015THY    HP137677   7.920   6.278   5.128 -0.4056 -0.3642 -0.1407
18015THY    CP237678   8.092   6.192   5.046 -0.4388  0.2953 -0.4994
18015THY    HP237679   8.153   6.194   5.137 -2.7864  1.9666  0.7508
18015THY    HP337680   8.114   6.287   4.994 -1.7178 -0.8211 -0.7709
18015THY    HP437681   8.129   6.113   4.980  0.5998 -0.5433  0.6460
18015THY    CP337682   7.909   6.066   5.166  0.2410 -0.5554 -0.2489
18015THY    HP537683   7.949   5.977   5.116 -0.5042  1.5810 -1.8724
18015THY    HP637684   7.799   6.066   5.168  0.2555  0.2312 -0.1869
18015THY    HP737685   7.946   6.079   5.268 -0.2403 -0.3358 -0.5708
18015THY    CA337686   7.836   6.060   4.869 -0.2489 -1.3873  0.3970
18015THY    HA337687   7.899   5.976   4.896  2.1438 -1.1561  2.1702
18015THY    CA437688   7.752   6.055   4.755  0.9373  0.1732  0.6647
18015THY    HA437689   7.736   5.961   4.702  1.6637 -0.2470  0.7793
18015THY    CA537690   7.690   6.173   4.713  0.7081 -0.5624  0.4012
18015THY    CM137691   7.610   6.161   4.585 -0.3227 -0.8502  0.7436
18015THY    HM137692   7.507   6.194   4.599 -0.6755 -2.8330  0.5934
18015THY    HM237693   7.582   6.058   4.560 -0.9010 -2.0946  1.1784
18015THY    HM337694   7.645   6.225   4.503 -0.8700 -1.8220 -0.1793
18015THY    CA637695   7.708   6.292   4.778 -0.4824  0.0264 -1.0300
18015THY    HA637696   7.648   6.378   4.752  0.3313 -1.0123 -0.7560
18016THY      O37697   5.640   4.578   4.895  0.4786 -0.0920  0.0345
18016THY     HO37698   5.615   4.669   4.873  1.4229  1.7714  0.7931
18016THY    CA137699   5.639   4.589   5.032 -0.0978 -0.1403  0.5978
18016THY    CA237700   5.643   4.477   5.116  0.6996  0.0567  0.4827
18016THY    CP137701   5.610   4.334   5.054  0.0995  0.4573 -0.0127
18016THY    HP137702   5.664   4.331   4.958 -0.7122 -0.1377  2.3269
18016THY    CP237703   5.465   4.317   5.016  0.3758 -0.3993  0.7517
18016THY    HP237704   5.436   4.395   4.944  0.3381  0.3826  1.4688
18016THY    HP337705   5.409   4.335   5.108 -0.3341 -0.4201 -1.0919
18016THY    HP437706   5.451   4.218   4.969  0.9133 -1.1699  1.0273
18016THY    CP337707   5.660   4.219   5.141  0.1661 -0.0541  0.4210
18016THY    HP537708   5.596   4.225   5.229  1.8219  1.1645  1.1223
18016THY    HP637709   5.760   4.233   5.184 -0.3006  0.8339  1.0813
18016THY    HP737710   5.643   4.118   5.102  0.4776 -0.5524  0.5556
18016THY    CA337711   5.660   4.500   5.256 -0.3337  0.0832  0.0528
18016THY    HA337712   5.661   4.415   5.324 -0.8517 -1.3267 -1.1325
18016THY    CA437713   5.661   4.630   5.308  0.3152 -0.3635 -0.2967
18016THY    HA437714   5.671   4.652   5.414 -0.9407 -0.1131 -0.8059
18016THY    CA537715   5.655   4.740   5.217 -0.1028 -0.5149 -0.5688
18016THY    CM137716   5.656   4.883   5.272 -0.3240  0.5885  0.3394
18016THY    HM137717   5.635   4.955   5.192  2.3455 -1.6818 -1.1818
18016THY    HM237718   5.752   4.894   5.324 -0.5711  1.0772  0.2169
18016THY    HM337719   5.572   4.881   5.342 -1.3640 -0.6132  0.4433
18016THY    CA637720   5.646   4.716   5.081  0.6571  0.4272  0.1053
18016THY    HA637721   5.634   4.801   5.014 -3.5044  0.0622 -0.5614
18017THY      O37722   7.707   2.702   6.012 -0.5264  0.5336 -1.0655
18017THY     HO37723   7.680   2.642   6.084 -0.1154  0.8039 -0.9323
18017THY    CA137724   7.733   2.804   6.086 -0.2201 -0.1066 -0.1273
18017THY    CA237725   7.839   2.892   6.061  0.0298 -0.1097  0.4552
18017THY    CP137726   7.937   2.879   5.945  0.1754  0.2749  0.5123
18017THY    HP137727   7.917   2.791   5.884  0.7774  1.1094 -0.2212
18017THY    CP237728   8.089   2.872   5.982 -1.1436  0.4585  0.5645
18017THY    HP237729   8.110   2.788   6.050 -3.5013 -0.0136 -0.4765
18017THY    HP337730   8.127   2.966   6.024 -0.2906 -0.8733  0.8462
18017THY    HP437731   8.148   2.845   5.894  0.6766  1.2283  1.8609
18017THY    CP337732   7.917   2.995   5.843  0.2283 -0.4058  0.6683
18017THY    HP537733   7.973   3.079   5.884  3.1154  1.1961 -1.8276
18017THY    HP637734   7.814   3.032   5.833  0.9537 -2.8769  2.2804
18017THY    HP737735   7.938   2.968   5.739  0.6856 -0.1801  0.1395
18017THY    CA337736   7.860   2.995   6.161 -0.0358 -0.2682  0.0256
18017THY    HA337737   7.953   3.052   6.163  0.4020  2.2805 -0.6435
18017THY    CA437738   7.763   3.009   6.266 -0.1675 -0.7295  0.6534
18017THY    HA437739   7.788   3.087   6.337  2.2976  1.9076 -2.2493
18017THY    CA537740   7.660   2.922   6.290  1.0335 -0.2556 -0.0736
18017THY    CM137741   7.566   2.948   6.404 -0.5740  1.0163  0.3092
18017THY    HM137742   7.627   2.943   6.494  0.4963  0.2803 -0.4519
18017THY    HM237743   7.488   2.873   6.420 -1.4805  2.1487  1.4486
18017THY    HM337744   7.536   3.053   6.397  1.6695  0.2831  0.9580
18017THY    CA637745   7.642   2.821   6.194 -0.5021 -0.1457 -0.1643
18017THY    HA637746   7.558   2.752   6.205 -0.8515 -1.2406  0.0631
18018THY      O37747   1.284   1.440   6.440  0.2089 -0.2004 -0.3748
18018THY     HO37748   1.344   1.499   6.489  1.2590 -0.9503 -0.7863
18018THY    CA137749   1.354   1.355   6.367 -0.2911  0.2344  0.3654
18018THY    CA237750   1.301   1.310   6.251  0.5187  0.3699  0.6737
18018THY    CP137751   1.163   1.354   6.190 -0.5137 -0.1455  0.0282
18018THY    HP137752   1.108   1.416   6.261  2.5751  2.6034 -0.1202
18018THY    CP237753   1.076   1.235   6.141  0.5397 -0.6585  0.4854
18018THY    HP237754   1.048   1.170   6.225  1.1143  0.0718  1.1718
18018THY    HP337755   1.121   1.175   6.060  0.8954 -0.9322  1.1087
18018THY    HP437756   0.979   1.267   6.104 -0.4547 -0.7960 -2.3767
18018THY    CP337757   1.180   1.466   6.072 -0.1767  0.6071 -0.0235
18018THY    HP537758   1.225   1.562   6.099 -1.5011  2.5647  0.1098
18018THY    HP637759   1.083   1.499   6.032  0.0027 -0.2045 -0.4581
18018THY    HP737760   1.237   1.424   5.988 -0.4670  0.6456 -0.5035
18018THY    CA337761   1.379   1.220   6.173  0.1822  0.0741 -0.4485
18018THY    HA337762   1.332   1.175   6.086 -2.0073  1.2556 -0.5776
18018THY    CA437763   1.507   1.179   6.215 -0.1687  0.6200  0.4771
18018THY    HA437764   1.565   1.106   6.160  1.9052  2.5653  0.5553
18018THY    CA537765   1.562   1.228   6.326  0.2468  0.1539  0.1396
18018THY    CM137766   1.693   1.171   6.373  0.0005 -0.2014  0.0284
18018THY    HM137767   1.739   1.114   6.291  2.0540 -0.0189  1.3264
18018THY    HM237768   1.675   1.106   6.459  0.4039 -1.1404 -1.3746
18018THY    HM337769   1.771   1.245   6.391  0.3215 -1.0261 -0.0913
18018THY    CA637770   1.476   1.299   6.415  0.4053  0.2091  0.0459
18018THY    HA637771   1.514   1.335   6.510  0.3777 -0.8747  3.2430
18019THY      O37772   8.187   8.992   5.449 -0.2254  0.4495  0.0937
18019THY     HO37773   8.136   8.926   5.499 -1.0390 -0.5499 -0.0608
18019THY    CA137774   8.295   9.029   5.528  0.2582 -1.0060 -0.4391
18019THY    CA237775   8.388   9.129   5.482  0.0323 -0.0776  0.9962
18019THY    CP137776   8.385   9.173   5.339 -0.8304 -0.1457  0.3813
18019THY    HP137777   8.283   9.156   5.302 -0.8615 -0.1999  0.6721
18019THY    CP237778   8.476   9.090   5.254 -0.1546 -0.2062 -0.4345
18019THY    HP237779   8.573   9.106   5.303  0.2313 -1.1024  0.0711
18019THY    HP337780   8.477   9.139   5.156  1.5705  1.2279  2.6984
18019THY    HP437781   8.435   8.988   5.262  1.1055  0.0158 -0.9490
18019THY    CP337782   8.408   9.324   5.318 -0.4680 -0.3208  0.1841
18019THY    HP537783   8.510   9.352   5.348 -1.1341  1.6122  0.6561
18019THY    HP637784   8.336   9.385   5.373 -0.8538  1.0870 -1.4877
18019THY    HP737785   8.403   9.355   5.212 -1.1545 -0.4691 -0.4159
18019THY    CA337786   8.493   9.165   5.565 -0.4614  0.1595 -0.2502
18019THY    HA337787   8.571   9.226   5.520 -0.3643 -0.6211 -0.9297
18019THY    CA437788   8.503   9.125   5.703  0.0664  0.7942  0.6368
18019THY    HA437789   8.588   9.154   5.765  0.4843 -0.5267  2.4718
18019THY    CA537790   8.401   9.042   5.750 -0.0651  0.0793 -0.2959
18019THY    CM137791   8.410   8.994   5.893  0.2956  0.6284 -0.8502
18019THY    HM137792   8.470   8.903   5.893  0.6684 -0.9361 -0.6314
18019THY    HM237793   8.311   8.991   5.940  1.8560  4.2453 -0.4587
18019THY    HM337794   8.463   9.067   5.956 -2.2786  1.1140  0.7484
18019THY    CA637795   8.299   8.992   5.668  0.1173 -0.2776 -0.6132
18019THY    HA637796   8.223   8.924   5.706 -1.1795  2.8833  2.3105
18020THY      O37797   2.897   7.778   3.067 -0.1483  0.0551  0.2082
18020THY     HO37798   2.858   7.689   3.070 -0.7894  1.7098  0.4949
18020THY    CA137799   2.859   7.830   3.187  0.5359 -0.1244  0.4226
18020THY    CA237800   2.884   7.967   3.213 -0.5398 -0.2905 -0.0238
18020THY    CP137801   2.972   8.052   3.119 -0.1411  0.6242 -0.4467
18020THY    HP137802   2.966   8.009   3.018 -0.9353  0.4258  0.0948
18020THY    CP237803   3.122   8.054   3.160 -0.3575 -0.2733 -0.1854
18020THY    HP237804   3.185   8.104   3.085  1.8527 -0.1709 -2.6180
18020THY    HP337805   3.170   7.961   3.193 -0.5933  0.3303 -0.0986
18020THY    HP437806   3.132   8.118   3.249  0.3878 -0.8771  0.5649
18020THY    CP337807   2.921   8.198   3.102  0.3839  0.0602 -0.7215
18020THY    HP537808   2.820   8.195   3.058 -0.2995  1.5970 -1.7042
18020THY    HP637809   2.988   8.244   3.029 -0.6694 -0.2885  0.3110
18020THY    HP737810   2.920   8.248   3.200 -0.5984 -0.3884  0.1734
18020THY    CA337811   2.847   8.008   3.336  0.4153 -0.0959 -0.1236
18020THY    HA337812   2.846   8.114   3.363 -1.1240 -2.2219  0.4662
18020THY    CA437813   2.777   7.922   3.427  0.0944 -0.0681 -0.3036
18020THY    HA437814   2.739   7.969   3.518 -0.3777 -0.7901  0.7506
18020THY    CA537815   2.759   7.792   3.400  0.5317  0.3423  0.7268
18020THY    CM137816   2.678   7.707   3.499  1.1613 -0.1431 -0.7900
18020THY    HM137817   2.584   7.761   3.515  2.7144  2.5680  1.3424
18020THY    HM237818   2.735   7.692   3.592  2.0304 -0.9625 -2.9535
18020THY    HM337819   2.656   7.603   3.473  0.4222  1.8959 -1.1875
18020THY    CA637820   2.801   7.745   3.282  0.8120  0.6140  0.7015
18020THY    HA637821   2.790   7.638   3.265  1.7681 -2.0471  0.9454
18021THY      O37822   7.508   8.119   5.028 -0.3813  0.0621 -0.5641
18021THY     HO37823   7.430   8.177   5.027  0.6124  0.2218  0.8011
18021THY    CA137824   7.525   8.074   5.154 -0.1290  0.4932  0.3690
18021THY    CA237825   7.583   7.947   5.180  0.6665  0.7059  0.2530
18021THY    CP137826   7.646   7.868   5.065  0.4572 -0.0745 -0.5077
18021THY    HP137827   7.663   7.926   4.973  0.9923 -1.0019 -2.0606
18021THY    CP237828   7.560   7.743   5.031  0.0461 -0.2616  0.5582
18021THY    HP237829   7.542   7.677   5.116 -2.4477 -2.1654 -1.4506
18021THY    HP337830   7.605   7.696   4.942 -1.0232 -1.5909  1.9215
18021THY    HP437831   7.458   7.780   5.016  0.7624 -2.0930  1.9455
18021THY    CP337832   7.784   7.820   5.103  1.0738 -0.6457  0.3665
18021THY    HP537833   7.823   7.753   5.026  0.6616  0.5851 -1.3787
18021THY    HP637834   7.778   7.756   5.192 -0.8925 -3.3135 -3.5762
18021THY    HP737835   7.855   7.901   5.122 -0.0556  0.1398  1.2102
18021THY    CA337836   7.592   7.893   5.309  0.5276  0.3335  0.3013
18021THY    HA337837   7.639   7.798   5.332  0.8948 -0.6887  0.2253
18021THY    CA437838   7.524   7.968   5.410 -0.4028 -1.0022 -0.9621
18021THY    HA437839   7.514   7.940   5.515 -2.2745 -0.3529  1.6602
18021THY    CA537840   7.466   8.095   5.384 -0.1364 -0.3335 -0.1484
18021THY    CM137841   7.395   8.169   5.494  0.2226 -0.5466 -0.9071
18021THY    HM137842   7.451   8.263   5.492 -0.3712 -0.9819 -0.5565
18021THY    HM237843   7.406   8.116   5.590 -0.7147 -0.7764 -1.5529
18021THY    HM337844   7.290   8.191   5.470 -0.1051  2.1271  0.9466
18021THY    CA637845   7.464   8.142   5.257  0.1150 -0.5261 -0.5885
18021THY    HA637846   7.429   8.241   5.228 -0.8359 -1.7386 -1.2660
18022THY      O37847   8.296   8.033   6.036 -0.3082  0.2870 -0.1583
18022THY     HO37848   8.322   8.126   6.021  0.2033  0.0698 -0.3329
18022THY    CA137849   8.261   8.032   6.170  0.1666 -0.0140 -0.9636
18022THY    CA237850   8.212   7.912   6.234 -0.2535  0.2997  0.0825
18022THY    CP137851   8.216   7.782   6.159  0.0409  0.4180  0.2840
18022THY    HP137852   8.225   7.796   6.050  0.5885  0.3848 -0.2980
18022THY    CP237853   8.067   7.727   6.160 -0.0356  0.1397  0.6918
18022THY    HP237854   8.060   7.625   6.120  1.6518 -0.4704  0.7884
18022THY    HP337855   7.993   7.795   6.117 -0.5120  0.1891  0.2191
18022THY    HP437856   8.046   7.726   6.267  0.3384  0.2141  0.0777
18022THY    CP337857   8.307   7.675   6.214  0.1936  0.8334  0.1067
18022THY    HP537858   8.395   7.731   6.249 -0.1306  0.0330  1.1492
18022THY    HP637859   8.342   7.613   6.130  1.4688  0.4881  1.2491
18022THY    HP737860   8.256   7.619   6.293 -0.7038 -0.5253 -1.0818
18022THY    CA337861   8.192   7.916   6.376  0.7985  0.1872  0.8124
18022THY    HA337862   8.166   7.825   6.429 -0.2948  0.6614  1.3731
18022THY    CA437863   8.201   8.039   6.438  0.2648 -0.8618  0.6464
18022THY    HA437864   8.192   8.043   6.546 -1.4435 -0.9727  0.4417
18022THY    CA537865   8.249   8.156   6.379 -0.0542 -0.0755  0.2598
18022THY    CM137866   8.272   8.276   6.465 -0.6862  1.5477  0.0099
18022THY    HM137867   8.219   8.273   6.561  1.7017  2.9378 -0.3119
18022THY    HM237868   8.229   8.365   6.419 -3.3604  1.3768 -1.2476
18022THY    HM337869   8.377   8.296   6.485 -0.0314 -0.1244 -1.4491
18022THY    CA637870   8.285   8.147   6.243  0.2763  0.0866 -0.0274
18022THY    HA637871   8.321   8.241   6.203  2.1961 -0.8234 -1.1019
18023THY      O37872   2.632   9.035   7.203  0.9539  0.0754 -0.0139
18023THY     HO37873   2.594   8.946   7.213  0.3070 -1.1835  0.0951
18023THY    CA137874   2.689   9.073   7.315 -0.5488  0.1701  0.4524
18023THY    CA237875   2.684   9.202   7.356  0.7625 -0.5095  0.1740
18023THY    CP137876   2.593   9.308   7.297  0.3576  0.7966 -0.7517
18023THY    HP137877   2.535   9.252   7.222  0.9212 -2.7351  2.9633
18023THY    CP237878   2.679   9.407   7.226 -0.1331 -1.1603 -0.0637
18023THY    HP237879   2.749   9.340   7.175  0.0475  0.1447 -0.8972
18023THY    HP337880   2.743   9.473   7.285  1.4598 -3.8540  0.9455
18023THY    HP437881   2.616   9.469   7.161 -2.7154  0.2578 -0.9988
18023THY    CP337882   2.506   9.363   7.405  0.7159 -0.6301 -0.8631
18023THY    HP537883   2.420   9.414   7.360  0.9827 -0.0056  0.1753
18023THY    HP637884   2.551   9.448   7.458  0.4895 -1.4024 -0.2413
18023THY    HP737885   2.470   9.290   7.479  0.1244 -0.0478 -0.0041
18023THY    CA337886   2.761   9.236   7.475  0.1841  0.0182 -0.3157
18023THY    HA337887   2.739   9.332   7.519  2.0760  0.5187 -0.0773
18023THY    CA437888   2.856   9.140   7.515  0.0239  0.2831  0.3573
18023THY    HA437889   2.921   9.159   7.600 -0.5054  0.6342  0.6174
18023THY    CA537890   2.870   9.013   7.461 -0.2351 -0.2416  0.0081
18023THY    CM137891   2.951   8.907   7.525 -0.2285 -0.1355  0.0895
18023THY    HM137892   3.016   8.869   7.445  0.4012  0.3396  0.1388
18023THY    HM237893   2.886   8.823   7.552 -1.9577  0.4893  1.5665
18023THY    HM337894   3.004   8.952   7.610  0.6389  0.1638 -1.4273
18023THY    CA637895   2.775   8.981   7.369  1.0602 -0.5555  0.0629
18023THY    HA637896   2.782   8.885   7.318 -1.6803 -0.8554 -0.0793
18024THY      O37897   2.972   7.508   7.592 -0.2618 -0.0373 -0.1061
18024THY     HO37898   2.929   7.513   7.679  1.6486  1.0570 -1.4584
18024THY    CA137899   2.971   7.380   7.566  0.5864  0.4858  0.3443
18024THY    CA237900   3.040   7.323   7.451  0.4677 -0.3382  0.1622
18024THY    CP137901   3.101   7.409   7.337  0.3151 -0.1640 -0.1579
18024THY    HP137902   3.156   7.489   7.388  1.5936  1.1482 -1.7956
18024THY    CP237903   2.979   7.457   7.253  0.3185  0.6770 -0.3965
18024THY    HP237904   2.886   7.400   7.265  0.1542  1.1272 -0.0474
18024THY    HP337905   2.992   7.463   7.145  1.4720  0.8521  0.6996
18024THY    HP437906   2.956   7.562   7.274  0.2990 -2.3400  0.2783
18024THY    CP337907   3.189   7.331   7.240  0.0519 -0.1980  0.0140
18024THY    HP537908   3.136   7.249   7.190 -0.6524 -0.9386  0.8948
18024THY    HP637909   3.284   7.298   7.284  1.5411 -2.5922  0.8393
18024THY    HP737910   3.225   7.396   7.160  2.0342 -0.8466 -1.7690
18024THY    CA337911   3.047   7.181   7.441 -0.0144  0.4194  0.4917
18024THY    HA337912   3.105   7.132   7.364  1.9800  1.9388  0.3446
18024THY    CA437913   2.979   7.096   7.529 -0.1322  0.2228 -0.0637
18024THY    HA437914   2.975   6.988   7.520 -3.4858 -2.4041  0.1138
18024THY    CA537915   2.920   7.155   7.636  0.8036 -0.8730  0.3165
18024THY    CM137916   2.866   7.071   7.748  0.1636  0.8262 -0.1273
18024THY    HM137917   2.822   7.135   7.825  0.2523  0.2501  0.6336
18024THY    HM237918   2.946   7.015   7.800  1.0806  2.2757  2.3800
18024THY    HM337919   2.792   6.997   7.716 -1.2563  1.3191  1.0492
18024THY    CA637920   2.903   7.297   7.651  0.4456 -0.4394  0.1396
18024THY    HA637921   2.849   7.332   7.739  1.5317  0.3975 -0.2041
18025THY      O37922   0.630   7.587   2.923  0.4037  0.2238 -0.0891
18025THY     HO37923   0.689   7.598   2.847 -0.2636 -0.2210  0.5199
18025THY    CA137924   0.697   7.643   3.034 -0.0610  0.0460  0.5570
18025THY    CA237925   0.636   7.735   3.119 -0.6263 -0.3648 -0.1663
18025THY    CP137926   0.494   7.776   3.101  0.5654  1.0066  0.0259
18025THY    HP137927   0.447   7.681   3.072  1.1960 -0.7075  0.1917
18025THY    CP237928   0.493   7.872   2.980 -0.2976  0.4170  0.1786
18025THY    HP237929   0.532   7.971   3.009 -0.7467 -0.2356  0.5615
18025THY    HP337930   0.392   7.901   2.951 -0.4994  0.9049 -0.0285
18025THY    HP437931   0.553   7.832   2.897  0.0937  0.6889  0.1957
18025THY    CP337932   0.413   7.823   3.216 -0.0315 -0.4540  0.1851
18025THY    HP537933   0.315   7.851   3.174 -0.2298  0.7611  1.4437
18025THY    HP637934   0.461   7.906   3.271  1.4753  0.7854 -1.4429
18025THY    HP737935   0.394   7.735   3.278 -0.8255 -1.7066 -0.5462
18025THY    CA337936   0.711   7.778   3.230 -0.0001 -0.0843 -0.8095
18025THY    HA337937   0.672   7.850   3.301  3.6785  1.2352  0.1150
18025THY    CA437938   0.849   7.742   3.239 -0.0003 -0.4906 -0.0629
18025THY    HA437939   0.902   7.782   3.326 -1.8138  0.7517 -0.2288
18025THY    CA537940   0.909   7.649   3.150  0.4364 -0.8229 -0.8412
18025THY    CM137941   1.038   7.608   3.175 -0.4216 -0.0459  0.5570
18025THY    HM137942   1.051   7.502   3.150 -1.0033  0.4865  0.3520
18025THY    HM237943   1.066   7.612   3.281 -0.0965  0.0417 -2.1312
18025THY    HM337944   1.108   7.662   3.109 -0.9548  0.6209  2.1095
18025THY    CA637945   0.828   7.595   3.047  1.2954 -0.2722 -0.2336
18025THY    HA637946   0.866   7.517   2.982 -0.4078 -1.0373 -0.4908
18026THY      O37947   4.582   5.590   2.072 -0.5762  0.1810 -0.0093
18026THY     HO37948   4.533   5.531   2.012  0.0836 -1.3063  0.8918
18026THY    CA137949   4.688   5.517   2.113 -0.2969 -0.2851  0.2734
18026THY    CA237950   4.746   5.537   2.240 -0.4357 -0.0776  0.8768
18026THY    CP137951   4.680   5.629   2.336  0.3524 -0.6138 -0.6002
18026THY    HP137952   4.587   5.674   2.298 -0.1794  0.7476 -0.5194
18026THY    CP237953   4.778   5.749   2.361 -0.4692  0.6817 -0.2448
18026THY    HP237954   4.871   5.705   2.399 -1.1449  1.6326 -0.8825
18026THY    HP337955   4.736   5.822   2.431  0.5800 -0.3088  1.3633
18026THY    HP437956   4.812   5.799   2.270  0.9860  0.4620 -1.5638
18026THY    CP337957   4.654   5.560   2.471  1.1176 -0.0365  0.3549
18026THY    HP537958   4.574   5.616   2.521 -1.1253 -2.8026 -0.1473
18026THY    HP637959   4.748   5.548   2.526  0.6602  0.6024 -0.4379
18026THY    HP737960   4.619   5.459   2.446  0.5369 -2.7876  1.1627
18026THY    CA337961   4.864   5.460   2.265 -0.3301 -0.3793  0.0683
18026THY    HA337962   4.904   5.477   2.365  3.4873 -1.7172 -0.0689
18026THY    CA437963   4.910   5.360   2.171 -0.5636 -0.4189 -0.0255
18026THY    HA437964   4.995   5.293   2.182 -1.1691 -1.5952 -1.0218
18026THY    CA537965   4.839   5.344   2.053  0.7095  0.0058  0.5319
18026THY    CM137966   4.883   5.250   1.952  0.4583 -0.3558  0.2839
18026THY    HM137967   4.821   5.242   1.862  0.3046 -0.3514  1.2574
18026THY    HM237968   4.896   5.150   1.993 -2.2945 -1.6554 -0.7177
18026THY    HM337969   4.981   5.286   1.919  0.1018 -0.7925  0.8733
18026THY    CA637970   4.726   5.416   2.023  0.4073  0.2790  0.2427
18026THY    HA637971   4.677   5.398   1.928  0.8796  0.3686 -1.7429
18027THY      O37972   1.203   2.390   6.205  0.5740 -0.9401 -0.4030
18027THY     HO37973   1.217   2.429   6.292  1.1278 -2.1093  2.2057
18027THY    CA137974   1.297   2.458   6.131  0.2191 -0.0362 -1.0999
18027THY    CA237975   1.366   2.387   6.031  0.1174  0.1688 -0.0809
18027THY    CP137976   1.312   2.250   5.975 -0.4326 -0.1384  0.4978
18027THY    HP137977   1.206   2.246   6.003 -0.1433  0.8795 -0.6931
18027THY    CP237978   1.401   2.145   6.048  0.3878  0.0517  0.6582
18027THY    HP237979   1.506   2.171   6.031  0.1213 -2.5373  0.3579
18027THY    HP337980   1.379   2.049   5.999  0.8018 -0.1306  0.6543
18027THY    HP437981   1.370   2.135   6.152  0.7095  0.0085 -1.1835
18027THY    CP337982   1.330   2.239   5.818 -0.0935 -0.2118  0.8129
18027THY    HP537983   1.278   2.154   5.773 -0.4472  1.5294  0.0564
18027THY    HP637984   1.437   2.243   5.794  0.3294  1.1713 -0.9629
18027THY    HP737985   1.279   2.328   5.778  0.5178 -0.1238  1.2102
18027THY    CA337986   1.482   2.447   5.979 -0.1162  0.7680 -0.7270
18027THY    HA337987   1.542   2.395   5.905 -0.0112  0.4777 -0.1996
18027THY    CA437988   1.522   2.571   6.026 -0.1277  0.4114 -0.3927
18027THY    HA437989   1.603   2.624   5.977 -0.6803 -0.2193 -0.1249
18027THY    CA537990   1.450   2.637   6.120 -0.6402 -0.3149  0.7482
18027THY    CM137991   1.502   2.769   6.169  0.3885  0.3555  0.7271
18027THY    HM137992   1.610   2.770   6.187  0.7161 -1.4142  1.4503
18027THY    HM237993   1.463   2.804   6.265 -0.4500  1.2024 -2.2254
18027THY    HM337994   1.478   2.845   6.094  2.5218 -1.1098  0.0592
18027THY    CA637995   1.342   2.582   6.178  0.5295  0.3083  0.7577
18027THY    HA637996   1.285   2.628   6.257  0.5965 -0.0265  1.4234
18028THY      O37997   8.597   3.054   1.964 -0.4706  0.0995  0.1352
18028THY     HO37998   8.651   3.096   1.896 -2.8961 -1.3460  1.1415
18028THY    CA137999   8.648   3.099   2.081 -0.2504 -0.3119  0.5413
18028THY    CA238000   8.583   3.097   2.210 -0.2926  0.4092 -0.0887
18028THY    CP138001   8.449   3.040   2.227 -0.1256 -0.1374  0.4865
18028THY    HP138002   8.418   3.009   2.126  3.3006 -1.7137  1.6575
18028THY    CP238003   8.344   3.140   2.271  0.8707 -0.2215 -0.0052
18028THY    HP238004   8.342   3.233   2.213 -2.2917 -0.2218  0.0088
18028THY    HP338005   8.372   3.182   2.369  1.7072 -0.4887  0.0807
18028THY    HP438006   8.245   3.095   2.270 -0.8242 -1.2536  3.3932
18028THY    CP338007   8.443   2.918   2.319 -0.3572 -1.1654 -0.1530
18028THY    HP538008   8.505   2.836   2.280  0.4709  0.5657 -0.3799
18028THY    HP638009   8.343   2.879   2.340 -0.1564  0.5690  0.2034
18028THY    HP738010   8.484   2.948   2.416 -0.6849 -1.3664  0.9751
18028THY    CA338011   8.648   3.160   2.322  0.1061 -0.5411 -0.4846
18028THY    HA338012   8.596   3.164   2.418 -2.6324 -1.9613  1.5842
18028THY    CA438013   8.763   3.228   2.304 -0.1363  0.2032 -0.2358
18028THY    HA438014   8.800   3.284   2.389 -0.7345  0.0631  0.3732
18028THY    CA538015   8.819   3.236   2.178 -0.6299 -0.2364  0.0149
18028THY    CM138016   8.945   3.312   2.164  0.4358 -0.0910  0.0718
18028THY    HM138017   9.018   3.257   2.103 -0.1950 -0.3775 -0.4565
18028THY    HM238018   8.992   3.334   2.261  0.8910  0.3040 -2.3235
18028THY    HM338019   8.925   3.405   2.109 -0.7150  0.1470 -0.0301
18028THY    CA638020   8.769   3.168   2.070 -0.5403  0.5572 -0.1587
18028THY    HA638021   8.828   3.175   1.980 -1.5257 -0.0100  1.0206
18029THY      O38022   8.263   8.269   5.641  0.1661 -0.1200  0.1163
18029THY     HO38023   8.253   8.173   5.645 -0.9297  0.6262  0.2459
18029THY    CA138024   8.374   8.298   5.573 -0.5173 -0.5233 -0.0407
18029THY    CA238025   8.396   8.428   5.521 -0.5729  0.2726 -0.1682
18029THY    CP138026   8.300   8.538   5.553  0.2341 -0.2094  0.0312
18029THY    HP138027   8.220   8.502   5.619  0.6197  0.4540  0.3750
18029THY    CP238028   8.230   8.585   5.434 -0.0981 -0.2773  0.1251
18029THY    HP238029   8.182   8.682   5.452  0.2412 -0.4655  0.3299
18029THY    HP338030   8.149   8.514   5.413 -0.8794  3.0596 -0.1533
18029THY    HP438031   8.302   8.600   5.353 -0.2379 -0.4639 -0.1965
18029THY    CP338032   8.369   8.649   5.629  0.4276 -0.3164  0.4367
18029THY    HP538033   8.472   8.615   5.647  0.6137 -0.1932  1.0498
18029THY    HP638034   8.325   8.670   5.727 -0.5104 -0.4574 -0.7765
18029THY    HP738035   8.381   8.737   5.565  0.7182 -1.4661 -0.4089
18029THY    CA338036   8.512   8.449   5.442 -0.5425  0.2959 -0.8052
18029THY    HA338037   8.527   8.547   5.397  0.9269  1.0120 -0.6692
18029THY    CA438038   8.610   8.344   5.430  0.5350  0.0217  0.0770
18029THY    HA438039   8.697   8.350   5.365  0.5438 -0.3493 -2.6260
18029THY    CA538040   8.586   8.220   5.485 -0.3823 -0.5223  0.5437
18029THY    CM138041   8.691   8.117   5.478 -0.9290 -0.0286 -0.5051
18029THY    HM138042   8.699   8.062   5.572  1.2185 -1.7281 -3.4267
18029THY    HM238043   8.790   8.158   5.458 -1.4251 -2.6436 -0.3614
18029THY    HM338044   8.663   8.029   5.419  0.4439 -0.8871 -0.3919
18029THY    CA638045   8.458   8.191   5.552 -0.8904  0.6980  0.6106
18029THY    HA638046   8.446   8.099   5.609 -1.7797 -2.1531 -1.1557
18030THY      O38047   5.712   5.141   1.928  0.5341  0.1898 -0.8501
18030THY     HO38048   5.798   5.160   1.968  0.5465 -0.2372  0.0316
18030THY    CA138049   5.735   5.049   1.833  0.3682 -0.6790 -0.3966
18030THY    CA238050   5.630   5.003   1.756  0.6612 -0.2725  0.0154
18030THY    CP138051   5.478   5.038   1.795 -0.5930 -0.4841  0.0003
18030THY    HP138052   5.479   5.104   1.882  0.6331 -1.9461  2.0285
18030THY    CP238053   5.394   4.921   1.820  0.0842 -0.5105  0.1366
18030THY    HP238054   5.299   4.948   1.868  0.8287  0.0840  1.8801
18030THY    HP338055   5.442   4.846   1.884  0.5288 -0.3493  0.5451
18030THY    HP438056   5.379   4.872   1.724 -0.5266 -0.0253 -0.6528
18030THY    CP338057   5.428   5.114   1.681  0.7551 -1.0817 -0.9697
18030THY    HP538058   5.323   5.138   1.703  1.5496  0.2092  1.8154
18030THY    HP638059   5.422   5.060   1.586 -1.1139 -2.0158  0.7035
18030THY    HP738060   5.493   5.203   1.682 -0.4529  0.3071 -0.0406
18030THY    CA338061   5.659   4.902   1.665 -0.4264 -0.0409 -0.7167
18030THY    HA338062   5.582   4.861   1.601 -1.8794  2.6858 -2.5390
18030THY    CA438063   5.787   4.848   1.655 -0.3193 -0.2421 -0.7719
18030THY    HA438064   5.810   4.779   1.574  0.1073 -2.4109  1.7572
18030THY    CA538065   5.896   4.898   1.729  0.2617 -0.7195  0.8457
18030THY    CM138066   6.034   4.835   1.729  0.0666  0.2169 -0.2760
18030THY    HM138067   6.037   4.771   1.640  0.3823 -1.4824  1.9529
18030THY    HM238068   6.053   4.779   1.821  2.6785  0.2762  0.5927
18030THY    HM338069   6.112   4.912   1.719  1.3499  0.9457 -1.4419
18030THY    CA638070   5.867   4.996   1.820  0.0203 -1.1688 -0.6114
18030THY    HA638071   5.947   5.041   1.879 -1.0761  0.7777 -1.1188
18031THY      O38072   8.273   1.567   5.958 -0.2137  0.2167  0.7390
18031THY     HO38073   8.338   1.537   5.893 -0.5982  0.7769 -1.5078
18031THY    CA138074   8.328   1.574   6.089 -0.0096  0.6529  0.4271
18031THY    CA238075   8.255   1.615   6.199 -0.0759  0.0356 -0.5058
18031THY    CP138076   8.107   1.672   6.187 -0.4310  0.3488  0.3981
18031THY    HP138077   8.065   1.663   6.086  1.6814 -0.5781  0.3867
18031THY    CP238078   8.102   1.816   6.234  0.3614 -0.1919 -0.8620
18031THY    HP238079   8.154   1.829   6.330  0.8739 -0.4703 -0.8238
18031THY    HP338080   7.999   1.848   6.253  0.4714 -0.1094 -0.5574
18031THY    HP438081   8.153   1.876   6.158 -0.8636  0.0586  0.5233
18031THY    CP338082   8.005   1.587   6.264  0.0534  1.0465 -0.0507
18031THY    HP538083   7.907   1.634   6.275 -0.9033 -0.0460 -1.6974
18031THY    HP638084   8.036   1.561   6.365  0.1114  1.9848  3.1521
18031THY    HP738085   7.991   1.495   6.207 -1.7216  1.0202  0.2104
18031THY    CA338086   8.324   1.614   6.323 -0.6380  0.0997  0.1515
18031THY    HA338087   8.271   1.641   6.414  0.4424  0.9775 -0.6113
18031THY    CA438088   8.467   1.583   6.331 -0.0274 -0.6211  0.0289
18031THY    HA438089   8.510   1.574   6.430 -1.0607 -0.3204 -2.3292
18031THY    CA538090   8.536   1.545   6.218  0.5951  0.1417 -0.7467
18031THY    CM138091   8.682   1.514   6.229 -0.3377  0.0763  0.5009
18031THY    HM138092   8.732   1.593   6.286 -0.5427  0.5372  0.3011
18031THY    HM238093   8.734   1.511   6.132  0.0766  0.3145 -0.3223
18031THY    HM338094   8.698   1.416   6.274  0.1215 -0.0360  0.5227
18031THY    CA638095   8.466   1.539   6.098  0.5968  0.0135  0.0158
18031THY    HA638096   8.520   1.513   6.007 -0.5090 -0.3690 -1.0213
18032THY      O38097   1.277   7.035   4.258 -0.2659  0.4298 -0.1857
18032THY     HO38098   1.283   6.987   4.343 -3.0685  0.0735 -1.3596
18032THY    CA138099   1.353   6.976   4.168 -1.2255 -0.0806  0.1300
18032THY    CA238100   1.308   6.963   4.040  0.4137 -0.2381  0.8398
18032THY    CP138101   1.176   7.021   3.998 -0.2098 -0.0281  0.7062
18032THY    HP138102   1.112   7.022   4.088 -0.4765 -0.2180  1.7391
18032THY    CP238103   1.099   6.942   3.888 -0.0259 -0.0441  0.2048
18032THY    HP238104   0.998   6.985   3.883  0.5604 -0.9693  1.5514
18032THY    HP338105   1.074   6.836   3.902 -1.9299  1.1318  0.7423
18032THY    HP438106   1.135   6.960   3.786 -0.7118 -0.2037  0.7426
18032THY    CP338107   1.200   7.161   3.948 -0.0797 -0.1826 -0.1630
18032THY    HP538108   1.105   7.206   3.919  0.8014 -1.4715  0.9733
18032THY    HP638109   1.272   7.156   3.865  0.3394 -0.0586  2.3705
18032THY    HP738110   1.251   7.225   4.021  2.2490 -2.5498  0.8963
18032THY    CA338111   1.389   6.891   3.953 -0.2027  0.5105 -0.0658
18032THY    HA338112   1.355   6.883   3.851  0.9477 -0.2450  3.2432
18032THY    CA438113   1.509   6.834   3.992  0.2880 -0.8235 -0.4795
18032THY    HA438114   1.559   6.781   3.911  0.4972 -1.4996  0.7319
18032THY    CA538115   1.568   6.872   4.112 -0.5078 -0.3043 -0.6710
18032THY    CM138116   1.703   6.833   4.162 -0.0880 -0.1629 -0.3363
18032THY    HM138117   1.687   6.779   4.255 -0.4501 -0.4338 -0.6962
18032THY    HM238118   1.760   6.923   4.190 -1.0886  0.5137  0.1034
18032THY    HM338119   1.759   6.773   4.089 -0.7067  0.1391 -1.2855
18032THY    CA638120   1.488   6.952   4.195  0.6292 -0.0322  0.0306
18032THY    HA638121   1.533   6.989   4.287  0.2725  0.7872 -1.4857
18033THY      O38122   5.576   2.784   2.975 -0.0001 -0.6715 -0.4473
18033THY     HO38123   5.500   2.799   2.916 -0.3478 -0.1330 -0.0536
18033THY    CA138124   5.589   2.900   3.045 -0.1276 -0.8830  0.9686
18033THY    CA238125   5.677   2.907   3.159 -0.0650 -0.6360 -0.1277
18033THY    CP138126   5.738   2.787   3.224 -0.1054 -0.1455  0.6040
18033THY    HP138127   5.713   2.692   3.176 -2.3017  0.6463  0.7119
18033THY    CP238128   5.690   2.769   3.363 -0.0143  0.5208  0.5642
18033THY    HP238129   5.743   2.685   3.410 -0.8373  1.1864  0.4045
18033THY    HP338130   5.583   2.747   3.356  0.2076 -3.3643  0.0673
18033THY    HP438131   5.704   2.855   3.429  0.8575 -0.1184  0.9344
18033THY    CP338132   5.894   2.799   3.219 -0.3129 -0.3287 -0.0252
18033THY    HP538133   5.924   2.816   3.115  0.4924 -0.2908 -1.1143
18033THY    HP638134   5.940   2.703   3.246 -0.6575  0.8732  0.1288
18033THY    HP738135   5.935   2.869   3.293 -1.2747  0.6215 -0.4298
18033THY    CA338136   5.697   3.026   3.223  0.0451  0.9360 -0.5023
18033THY    HA338137   5.767   3.032   3.306  2.4960 -1.1269  0.9868
18033THY    CA438138   5.634   3.147   3.166 -0.1494 -0.1105 -0.1334
18033THY    HA438139   5.657   3.243   3.211 -1.3646 -1.0820  0.6357
18033THY    CA538140   5.566   3.140   3.045  0.0319  0.7912 -0.2887
18033THY    CM138141   5.515   3.259   2.973 -0.2925  0.5371  0.4704
18033THY    HM138142   5.546   3.265   2.868 -0.0215  0.5534 -0.4473
18033THY    HM238143   5.544   3.356   3.015 -0.5076 -0.0632  0.8005
18033THY    HM338144   5.405   3.266   2.971 -0.3776 -0.8796 -0.6348
18033THY    CA638145   5.538   3.013   2.993 -0.1635  0.3973 -0.3064
18033THY    HA638146   5.480   2.993   2.904  0.0209  0.4211 -0.9786
18034THY      O38147   7.282   0.344   2.970 -0.2952 -0.3004  0.3060
18034THY     HO38148   7.214   0.288   3.010  0.8332 -0.8581 -1.5327
18034THY    CA138149   7.373   0.357   3.073 -0.2325 -0.5487  0.2976
18034THY    CA238150   7.511   0.337   3.046 -0.6968 -0.3620  0.0502
18034THY    CP138151   7.564   0.318   2.902  0.1180 -0.5257 -0.3816
18034THY    HP138152   7.483   0.308   2.828 -0.0019 -0.1004 -3.8193
18034THY    CP238153   7.637   0.186   2.884 -0.1106  0.1809  0.6535
18034THY    HP238154   7.736   0.185   2.930  0.9176 -1.8930 -1.5100
18034THY    HP338155   7.654   0.159   2.779 -0.9188  0.5287 -1.3778
18034THY    HP438156   7.573   0.108   2.926  1.2447  0.0952 -0.5267
18034THY    CP338157   7.652   0.437   2.862 -0.1997 -0.1589  0.0672
18034THY    HP538158   7.684   0.423   2.758 -0.0798  0.1472 -2.3540
18034THY    HP638159   7.739   0.431   2.927 -0.2110 -0.2875 -2.0619
18034THY    HP738160   7.601   0.533   2.876 -0.1229  0.4314  0.0244
18034THY    CA338161   7.600   0.356   3.154  1.1498 -0.4048 -0.0749
18034THY    HA338162   7.706   0.334   3.138  1.4287  1.8129 -0.5988
18034THY    CA438163   7.550   0.384   3.282 -0.5552  0.3244 -0.1601
18034THY    HA438164   7.621   0.377   3.364 -1.0615  0.7186 -0.9336
18034THY    CA538165   7.415   0.405   3.305 -0.4062  0.3295  0.3875
18034THY    CM138166   7.371   0.434   3.447 -0.6887  0.6842  0.0863
18034THY    HM138167   7.408   0.526   3.493 -0.0541  0.4019 -0.0189
18034THY    HM238168   7.417   0.357   3.510  2.2034  1.2953  2.1527
18034THY    HM338169   7.262   0.429   3.458 -0.4789  2.6602 -3.3171
18034THY    CA638170   7.324   0.382   3.200  0.4133 -0.3367  0.0175
18034THY    HA638171   7.218   0.399   3.216  0.9781  1.6995  2.2017
18035THY      O38172   5.383   7.190   7.567 -0.2845  0.1599 -0.5537
18035THY     HO38173   5.295   7.223   7.542 -0.4338  3.1837  1.7763
18035THY    CA138174   5.451   7.303   7.595 -0.3115  0.2164  0.3233
18035THY    CA238175   5.579   7.302   7.657 -1.0048  0.6441  1.0816
18035THY    CP138176   5.635   7.169   7.692  0.1146  0.6317 -0.4601
18035THY    HP138177   5.559   7.091   7.683 -1.1369 -0.4830  0.8419
18035THY    CP238178   5.669   7.159   7.837  0.2193 -0.4941  0.5539
18035THY    HP238179   5.585   7.175   7.905  0.1424  0.1116 -2.0030
18035THY    HP338180   5.743   7.234   7.869 -1.0794  1.3914  1.1020
18035THY    HP438181   5.705   7.058   7.858 -1.2870 -0.3245  0.0293
18035THY    CP338182   5.760   7.139   7.605 -0.4426 -0.3529 -0.1947
18035THY    HP538183   5.724   7.111   7.505  1.3104 -0.2569 -3.1415
18035THY    HP638184   5.805   7.044   7.636 -0.2512  0.4921  0.1640
18035THY    HP738185   5.842   7.212   7.598 -0.4530 -1.1847 -0.2495
18035THY    CA338186   5.664   7.417   7.659 -0.9601 -0.2024  0.0994
18035THY    HA338187   5.768   7.420   7.688 -0.7068 -1.1532  0.7866
18035THY    CA438188   5.605   7.539   7.611  0.5842  0.2779 -0.5816
18035THY    HA438189   5.662   7.631   7.608  0.1055 -0.0823 -0.2920
18035THY    CA538190   5.475   7.537   7.564  0.6284 -0.7774 -0.0825
18035THY    CM138191   5.425   7.654   7.497 -0.6385  0.3624  0.4026
18035THY    HM138192   5.321   7.661   7.530 -1.2080 -1.2473 -0.0007
18035THY    HM238193   5.439   7.644   7.389  1.4776  0.7396 -1.9218
18035THY    HM338194   5.482   7.739   7.536  2.8168 -1.2880 -0.9464
18035THY    CA638195   5.399   7.424   7.558  0.2740 -0.2694  0.6984
18035THY    HA638196   5.304   7.427   7.506  0.7814 -1.3161 -0.3673
18036THY      O38197   7.732   0.621   5.204  0.2831 -0.0710 -0.1847
18036THY     HO38198   7.679   0.539   5.206 -0.8368  0.4626  0.5311
18036THY    CA138199   7.786   0.616   5.084 -0.4282  0.1533 -0.4662
18036THY    CA238200   7.797   0.730   5.002 -0.4591 -0.5844  0.4005
18036THY    CP138201   7.761   0.864   5.058  0.2437  0.3819  0.4500
18036THY    HP138202   7.661   0.849   5.102 -0.1607  0.2896  2.5369
18036THY    CP238203   7.757   0.981   4.949  0.0541 -0.0638 -0.5442
18036THY    HP238204   7.684   0.937   4.880  0.4726 -0.8771  0.0176
18036THY    HP338205   7.856   0.983   4.903  0.4910  0.8531 -0.4261
18036THY    HP438206   7.718   1.080   4.974  0.0789 -2.1337  0.0415
18036THY    CP338207   7.856   0.906   5.169 -0.5442 -0.2356 -0.6072
18036THY    HP538208   7.851   0.825   5.243  0.2113  0.9947  0.4519
18036THY    HP638209   7.824   1.005   5.204  1.0708 -1.0127  0.2305
18036THY    HP738210   7.957   0.919   5.128 -0.6345 -1.4488 -3.1601
18036THY    CA338211   7.856   0.713   4.870 -0.7073  0.0494  0.2654
18036THY    HA338212   7.887   0.799   4.812  1.3877  1.6373  0.6660
18036THY    CA438213   7.889   0.585   4.825  0.0399 -0.3389  1.1893
18036THY    HA438214   7.919   0.557   4.725 -0.6236  0.4126 -3.0347
18036THY    CA538215   7.842   0.469   4.904 -0.0485 -0.5746  0.8969
18036THY    CM138216   7.858   0.334   4.854 -0.5433  0.7612  0.0637
18036THY    HM138217   7.876   0.331   4.746  0.4063  0.9310 -2.2770
18036THY    HM238218   7.767   0.274   4.867 -0.4281 -0.6444 -0.4427
18036THY    HM338219   7.941   0.283   4.904  0.4975 -1.9348 -1.0363
18036THY    CA638220   7.795   0.488   5.031  0.4887  0.2729  0.3705
18036THY    HA638221   7.757   0.403   5.088  1.6183  0.0729 -0.2822
18037THY      O38222   3.907   8.644   5.862  0.4078  0.3937 -0.3373
18037THY     HO38223   3.823   8.596   5.849  0.1323 -1.1143  0.4816
18037THY    CA138224   3.991   8.552   5.918 -0.1779  0.3962 -0.0486
18037THY    CA238225   4.105   8.598   5.998  0.4057  0.5173  0.7492
18037THY    CP138226   4.111   8.743   6.041 -0.1228 -0.5775 -0.6709
18037THY    HP138227   4.040   8.807   5.988  0.5970 -0.9270 -0.1441
18037THY    CP238228   4.250   8.813   6.004  0.4337 -0.1605  0.0256
18037THY    HP238229   4.254   8.919   6.032 -0.8775  1.5243 -0.3266
18037THY    HP338230   4.276   8.793   5.899  1.4009 -0.1402  1.0815
18037THY    HP438231   4.329   8.772   6.068  1.6215 -1.0291  0.8621
18037THY    CP338232   4.089   8.759   6.193 -0.2319  0.1921  0.8786
18037THY    HP538233   3.991   8.715   6.216  0.0505  0.0001  0.1241
18037THY    HP638234   4.092   8.861   6.233 -1.9923  0.3710  0.8946
18037THY    HP738235   4.165   8.696   6.241 -1.8078  1.3010 -0.2423
18037THY    CA338236   4.197   8.502   6.036  0.5931  0.2595  0.0407
18037THY    HA338237   4.287   8.538   6.086 -0.7161  0.7050  2.9248
18037THY    CA438238   4.190   8.370   5.985  0.6063 -0.0185  0.3810
18037THY    HA438239   4.257   8.288   6.010 -1.7148  1.0908 -1.3118
18037THY    CA538240   4.092   8.335   5.896  0.8340  0.0862 -0.4816
18037THY    CM138241   4.094   8.204   5.838 -0.5600  0.4574  0.1323
18037THY    HM138242   4.161   8.133   5.887 -0.0754  0.8167  0.8397
18037THY    HM238243   4.131   8.201   5.735  0.3752  0.7734  0.4917
18037THY    HM338244   3.993   8.159   5.834 -0.2993  0.7078 -0.4875
18037THY    CA638245   3.987   8.423   5.871 -0.2335 -0.5424 -0.2892
18037THY    HA638246   3.898   8.397   5.814 -0.7686  0.5577 -0.9246
18038THY      O38247   7.484   7.622   3.866  0.0701  1.0143  0.1775
18038THY     HO38248   7.559   7.591   3.812 -0.2517  0.0663  1.0115
18038THY    CA138249   7.544   7.704   3.949  0.1176 -0.0717  0.0833
18038THY    CA238250   7.492   7.726   4.079 -0.0700  0.2961  0.0229
18038THY    CP138251   7.374   7.642   4.125  0.0505  0.2427  0.7988
18038THY    HP138252   7.354   7.568   4.047  3.6791 -0.2485  0.1774
18038THY    CP238253   7.252   7.735   4.136 -0.2380  0.0950 -0.0892
18038THY    HP238254   7.163   7.692   4.181 -0.0060  0.2197 -0.4370
18038THY    HP338255   7.220   7.761   4.034 -1.5946  0.8334  1.3111
18038THY    HP438256   7.272   7.826   4.194  1.1949 -2.0161  1.0491
18038THY    CP338257   7.382   7.565   4.261 -0.1331 -0.0598 -0.2030
18038THY    HP538258   7.389   7.644   4.337 -0.0942 -0.8923  0.6156
18038THY    HP638259   7.475   7.507   4.260 -0.4065 -2.3001 -0.6877
18038THY    HP738260   7.289   7.513   4.288 -0.9146 -1.0430  0.6395
18038THY    CA338261   7.550   7.824   4.165  0.1372  0.0562  0.3956
18038THY    HA338262   7.520   7.839   4.269 -1.0315 -0.0758 -0.9185
18038THY    CA438263   7.652   7.904   4.113 -0.1399 -0.0916  0.5670
18038THY    HA438264   7.690   7.987   4.172  1.9952  1.2655 -1.2500
18038THY    CA538265   7.696   7.886   3.977 -0.4966 -0.4070 -0.0772
18038THY    CM138266   7.791   7.989   3.922  0.6374  0.0076 -0.5448
18038THY    HM138267   7.855   7.937   3.849 -0.0081  0.3771 -1.9292
18038THY    HM238268   7.855   8.038   3.995  1.2685 -1.6017  1.1304
18038THY    HM338269   7.726   8.066   3.880 -0.9291  0.4876 -1.5501
18038THY    CA638270   7.641   7.784   3.897 -0.3002 -0.3915 -0.0330
18038THY    HA638271   7.675   7.763   3.796 -0.0367 -0.2501 -0.2850
18039THY      O38272   2.588   6.759   2.855  0.7469 -0.5315  0.1243
18039THY     HO38273   2.521   6.767   2.785  0.1118 -0.1013 -1.2395
18039THY    CA138274   2.583   6.866   2.940  0.6607 -0.2256 -0.0771
18039THY    CA238275   2.587   6.844   3.079  0.3135  0.0188 -0.4483
18039THY    CP138276   2.594   6.701   3.149 -0.2630  0.6311 -0.4071
18039THY    HP138277   2.582   6.629   3.067 -0.0429  1.1033 -0.9848
18039THY    CP238278   2.471   6.683   3.231 -0.4200  0.1005 -0.5913
18039THY    HP238279   2.385   6.716   3.173 -1.2258  0.2979 -2.2452
18039THY    HP338280   2.477   6.739   3.325 -1.3598 -0.2274  0.0803
18039THY    HP438281   2.466   6.575   3.253  2.0624  0.0760 -0.7708
18039THY    CP338282   2.730   6.687   3.214 -0.6075  0.4836  0.9414
18039THY    HP538283   2.746   6.595   3.271  0.7494 -1.9765 -0.4474
18039THY    HP638284   2.747   6.773   3.280  0.5016 -1.2119  2.0682
18039THY    HP738285   2.815   6.701   3.148 -0.6729  0.6441  2.2652
18039THY    CA338286   2.574   6.953   3.163 -0.3783 -0.5359  0.2060
18039THY    HA338287   2.585   6.944   3.271 -0.8747 -0.5240 -0.3246
18039THY    CA438288   2.558   7.076   3.103  0.3681  0.1041  0.2451
18039THY    HA438289   2.566   7.161   3.171  2.0403  1.3319 -0.8457
18039THY    CA538290   2.550   7.097   2.972  0.7435  0.8000  0.5749
18039THY    CM138291   2.538   7.235   2.920  0.2237  0.5075 -0.2211
18039THY    HM138292   2.634   7.283   2.939  0.7519 -1.8862 -0.1905
18039THY    HM238293   2.451   7.291   2.954  1.2203  1.4182  0.8236
18039THY    HM338294   2.545   7.234   2.811  1.7441  0.5693  0.5304
18039THY    CA638295   2.558   6.997   2.889  0.1794  0.6401  0.5838
18039THY    HA638296   2.560   7.012   2.782 -3.2207  0.0734 -1.8318
18040THY      O38297   2.170   1.722   7.805  0.1167  0.2887  0.6481
18040THY     HO38298   2.139   1.632   7.822 -3.0980 -0.8997  1.4011
18040THY    CA138299   2.158   1.721   7.671  0.0410 -0.4385 -0.0244
18040THY    CA238300   2.190   1.829   7.589  0.5845 -0.4419 -0.0498
18040THY    CP138301   2.215   1.967   7.649 -0.4378  0.4953 -0.4014
18040THY    HP138302   2.258   1.948   7.748 -1.7113  1.2979  0.7195
18040THY    CP238303   2.092   2.064   7.648 -0.0913  0.0648 -0.3961
18040THY    HP238304   2.002   2.015   7.686 -0.1721 -0.1321 -0.4028
18040THY    HP338305   2.076   2.102   7.546  5.6830 -0.5466  1.5022
18040THY    HP438306   2.110   2.158   7.702  1.2871 -0.0053 -0.5886
18040THY    CP338307   2.335   2.038   7.591  0.3822  0.5607  0.1069
18040THY    HP538308   2.364   2.128   7.646  1.0526  0.6603 -0.1625
18040THY    HP638309   2.304   2.064   7.489  1.2483  0.1897 -0.2480
18040THY    HP738310   2.425   1.974   7.591  0.1921  1.0223 -0.1605
18040THY    CA338311   2.158   1.814   7.453  0.2252  0.5711 -0.7718
18040THY    HA338312   2.185   1.899   7.390  1.0618 -0.0700 -1.4904
18040THY    CA438313   2.112   1.690   7.400  0.2315 -0.4212 -1.2524
18040THY    HA438314   2.087   1.680   7.295  0.8844 -0.9359  1.5706
18040THY    CA538315   2.107   1.582   7.484  0.0740  0.0520  0.2712
18040THY    CM138316   2.081   1.438   7.436 -0.5351 -0.1536 -0.0529
18040THY    HM138317   2.012   1.381   7.500 -0.6530  0.1854  0.4626
18040THY    HM238318   2.177   1.385   7.429  0.0473 -2.9050  1.2102
18040THY    HM338319   2.041   1.432   7.334  1.1448 -0.8201 -0.6291
18040THY    CA638320   2.127   1.596   7.623  0.3178 -0.3570 -0.1003
18040THY    HA638321   2.109   1.509   7.686  0.8053 -1.0900 -0.7498
18041THY      O38322   5.772   1.097   4.218  0.4898  0.1905 -0.1128
18041THY     HO38323   5.683   1.066   4.197  2.0217 -2.8761 -3.0215
18041THY    CA138324   5.839   1.116   4.096 -0.0166 -0.1236  0.2762
18041THY    CA238325   5.978   1.097   4.084 -0.1147 -0.3866  0.7340
18041THY    CP138326   6.065   1.056   4.204  0.0720  0.1398  0.0914
18041THY    HP138327   6.008   1.048   4.298 -2.1181 -1.2003 -1.1492
18041THY    CP238328   6.169   1.168   4.226  0.1483  0.3837 -0.3161
18041THY    HP238329   6.117   1.262   4.247  1.2002 -0.2275  0.4228
18041THY    HP338330   6.232   1.175   4.137 -1.4537 -0.8073 -0.4389
18041THY    HP438331   6.241   1.132   4.300 -0.1096  0.6848 -0.2197
18041THY    CP338332   6.133   0.927   4.198 -0.5269  0.2898 -0.4517
18041THY    HP538333   6.056   0.849   4.190  0.4315 -0.8104 -1.3102
18041THY    HP638334   6.199   0.915   4.285  0.9951 -0.8238 -0.2855
18041THY    HP738335   6.191   0.930   4.106 -1.7587 -0.5523 -1.5788
18041THY    CA338336   6.038   1.129   3.960  0.2797 -0.5935 -0.2208
18041THY    HA338337   6.143   1.130   3.936  0.4343 -0.0903 -2.0175
18041THY    CA438338   5.958   1.164   3.853  0.0799 -0.1946 -0.0084
18041THY    HA438339   6.016   1.172   3.761  0.4783 -0.2119 -2.2603
18041THY    CA538340   5.819   1.159   3.859 -0.0163 -0.1506 -0.7714
18041THY    CM138341   5.749   1.195   3.734 -0.2137  1.1783  0.2087
18041THY    HM138342   5.641   1.178   3.733 -0.2694  2.4596  0.3898
18041THY    HM238343   5.797   1.141   3.652 -1.5954  0.2843  0.3051
18041THY    HM338344   5.774   1.300   3.718  2.3859  0.9725 -0.3683
18041THY    CA638345   5.761   1.137   3.986 -0.3710 -0.2983 -0.3441
18041THY    HA638346   5.654   1.150   3.997 -0.2225  0.5785  0.2077
18042THY      O38347   1.298   6.252   5.690 -0.2051 -0.2450 -0.1422
18042THY     HO38348   1.202   6.262   5.676 -0.7547  1.1662 -2.7332
18042THY    CA138349   1.327   6.139   5.621 -0.0193  0.3092 -0.4784
18042THY    CA238350   1.422   6.039   5.662  0.7457  0.3593 -0.7241
18042THY    CP138351   1.505   6.052   5.790  0.3678 -0.0491 -0.0240
18042THY    HP138352   1.460   6.131   5.852 -0.0514 -1.2290  0.6854
18042THY    CP238353   1.656   6.078   5.765 -0.9479  0.2977  0.0015
18042THY    HP238354   1.690   5.991   5.706  0.4420 -0.5078  1.0424
18042THY    HP338355   1.710   6.086   5.860  0.7294 -0.6009 -0.0844
18042THY    HP438356   1.671   6.165   5.700  0.8454 -0.6904 -0.9544
18042THY    CP338357   1.497   5.925   5.877  0.2949 -0.4398  0.0451
18042THY    HP538358   1.394   5.902   5.905  0.3749  0.3850  0.6595
18042THY    HP638359   1.551   5.950   5.969  1.9087 -0.2765 -3.4907
18042THY    HP738360   1.550   5.841   5.829  2.4614  0.9938  0.5104
18042THY    CA338361   1.439   5.930   5.575 -0.1582 -0.6858 -0.4194
18042THY    HA338362   1.516   5.857   5.601  1.4376  1.0172  1.7545
18042THY    CA438363   1.374   5.917   5.453 -0.1397 -0.6344  0.5140
18042THY    HA438364   1.398   5.828   5.396  1.3140 -0.3960  0.7190
18042THY    CA538365   1.283   6.012   5.416  0.1046 -0.0842 -0.3190
18042THY    CM138366   1.208   5.983   5.289  0.4035  0.3497  0.0700
18042THY    HM138367   1.228   6.064   5.218  0.2727  0.4767  0.2130
18042THY    HM238368   1.099   5.981   5.305  0.5724  1.8322  0.9867
18042THY    HM338369   1.244   5.887   5.252  0.4982  0.7006 -0.0301
18042THY    CA638370   1.256   6.128   5.505  0.2403  1.0221  1.0183
18042THY    HA638371   1.191   6.208   5.473 -0.7310  1.9110  0.6003
18043THY      O38372   3.158   5.480   6.177 -0.0927  0.2281 -0.0034
18043THY     HO38373   3.214   5.556   6.154 -0.4533 -1.3404 -0.1793
18043THY    CA138374   3.109   5.438   6.060  0.0364 -0.2155 -0.3059
18043THY    CA238375   3.013   5.336   6.057 -0.4424 -0.8664 -0.5466
18043THY    CP138376   2.951   5.287   6.191  0.2400  0.8774  0.1807
18043THY    HP138377   2.981   5.353   6.273  0.7499  0.6202  0.2722
18043THY    CP238378   2.978   5.132   6.216  0.1233  0.0630 -0.5368
18043THY    HP238379   2.946   5.104   6.317 -0.8243  0.7241  2.5446
18043THY    HP338380   3.082   5.099   6.207 -0.4148 -3.4874 -1.7492
18043THY    HP438381   2.927   5.072   6.139 -3.4542  0.4653  1.6981
18043THY    CP338382   2.799   5.297   6.203 -0.1896  0.3467 -0.5321
18043THY    HP538383   2.761   5.389   6.159  0.1956 -0.9835 -0.9940
18043THY    HP638384   2.759   5.283   6.304 -0.0479  0.6726  1.1984
18043THY    HP738385   2.740   5.224   6.148 -1.8809 -1.9803  2.3552
18043THY    CA338386   2.961   5.290   5.935 -0.5091  0.6516 -0.0138
18043THY    HA338387   2.880   5.217   5.935 -1.0305  0.3394  0.5475
18043THY    CA438388   3.008   5.335   5.820 -0.0772  0.2365 -0.4670
18043THY    HA438389   2.971   5.300   5.724  0.5380 -0.2440  0.1536
18043THY    CA538390   3.102   5.442   5.822  0.2399  0.3173 -0.4701
18043THY    CM138391   3.151   5.514   5.693  0.0063  0.0064  0.1409
18043THY    HM138392   3.250   5.474   5.667 -0.3786  0.1770 -0.9799
18043THY    HM238393   3.152   5.623   5.696  1.3959  0.0313  0.1409
18043THY    HM338394   3.091   5.490   5.605  2.6633 -2.0804  0.6997
18043THY    CA638395   3.158   5.487   5.941 -0.4125  0.6929  0.3933
18043THY    HA638396   3.229   5.569   5.939 -2.8927  1.0342  2.6667
18044THY      O38397   6.591   5.738   3.749  0.0026 -0.4855 -0.3022
18044THY     HO38398   6.667   5.799   3.755  1.4109 -1.2698 -1.8994
18044THY    CA138399   6.476   5.810   3.742  0.4170  0.1600  0.1350
18044THY    CA238400   6.353   5.753   3.773  0.3333  0.1757  0.1129
18044THY    CP138401   6.349   5.606   3.823 -0.4984  0.4143 -0.1354
18044THY    HP138402   6.446   5.559   3.805  0.9991  1.2220  2.4373
18044THY    CP238403   6.243   5.522   3.757  0.2993  0.0271 -0.2454
18044THY    HP238404   6.239   5.421   3.799  1.6682  1.8287  0.3978
18044THY    HP338405   6.273   5.515   3.652  1.5609  0.4238 -1.1375
18044THY    HP438406   6.144   5.567   3.768 -0.0908 -1.3118 -0.7391
18044THY    CP338407   6.321   5.607   3.973 -0.3379  0.3591 -0.3500
18044THY    HP538408   6.255   5.685   4.011 -0.0393  3.5296 -1.4840
18044THY    HP638409   6.418   5.633   4.018 -0.4744  1.1075 -1.0858
18044THY    HP738410   6.277   5.514   4.010 -1.3582 -1.2166 -0.5379
18044THY    CA338411   6.238   5.838   3.755 -0.4351 -0.3572  0.2367
18044THY    HA338412   6.137   5.808   3.779 -0.0234 -0.0870 -0.9935
18044THY    CA438413   6.256   5.972   3.711 -0.6189 -0.5398  0.0989
18044THY    HA438414   6.166   6.031   3.697 -0.9640  1.6914  0.2027
18044THY    CA538415   6.379   6.018   3.669 -0.2924  0.1030 -0.0208
18044THY    CM138416   6.402   6.158   3.616 -0.0660 -0.2177  0.1278
18044THY    HM138417   6.421   6.156   3.508 -0.6459 -0.3264  0.0286
18044THY    HM238418   6.469   6.223   3.673  0.9905 -2.2765  0.9472
18044THY    HM338419   6.314   6.224   3.616 -0.2509  0.0186 -0.1161
18044THY    CA638420   6.488   5.933   3.683  0.5004 -0.1598 -0.1791
18044THY    HA638421   6.586   5.973   3.659  0.0002  0.2027  1.3353
18045THY      O38422   1.726   4.478   7.563 -0.1008  0.4243 -0.1325
18045THY     HO38423   1.817   4.446   7.576  0.3130 -1.2605  0.2929
18045THY    CA138424   1.732   4.614   7.567 -0.4154  0.5666  0.0671
18045THY    CA238425   1.651   4.705   7.500 -0.6554  0.4700 -0.1666
18045THY    CP138426   1.521   4.662   7.434  0.3762  0.3231  0.8937
18045THY    HP138427   1.463   4.618   7.516 -0.6442  1.2146  3.6592
18045THY    CP238428   1.560   4.552   7.329 -0.6330  0.0555  0.5668
18045THY    HP238429   1.597   4.459   7.372  0.0193 -0.7394  0.4433
18045THY    HP338430   1.626   4.586   7.248  2.3276  1.2636 -1.8588
18045THY    HP438431   1.472   4.515   7.273  0.6758 -1.6286 -0.1330
18045THY    CP338432   1.446   4.768   7.352 -0.4769  0.0089  0.3117
18045THY    HP538433   1.504   4.800   7.264  2.8034  1.6093 -0.7777
18045THY    HP638434   1.416   4.850   7.419 -2.7774 -0.1426 -0.3331
18045THY    HP738435   1.345   4.734   7.325 -0.2675 -0.2605 -0.1070
18045THY    CA338436   1.693   4.839   7.479  0.2206 -0.1778  0.8097
18045THY    HA338437   1.638   4.904   7.411  1.4306 -1.8275  0.1638
18045THY    CA438438   1.811   4.873   7.545 -0.4422  0.6770  0.6212
18045THY    HA438439   1.844   4.976   7.530 -0.7230 -1.9978  0.4130
18045THY    CA538440   1.884   4.789   7.626  0.0156  0.3997 -0.4579
18045THY    CM138441   2.016   4.835   7.685 -0.2166  0.8971  0.5180
18045THY    HM138442   2.002   4.838   7.793  0.0543  0.9286  0.7227
18045THY    HM238443   2.032   4.939   7.653 -2.2878 -2.1225  0.0487
18045THY    HM338444   2.101   4.769   7.663 -0.8809  0.3407 -0.1741
18045THY    CA638445   1.847   4.658   7.629  0.2129 -0.7891 -0.1776
18045THY    HA638446   1.914   4.596   7.688  1.7146 -0.9274  1.2285
18046THY      O38447   2.875   1.886   2.702 -0.5578 -0.0838 -0.3109
18046THY     HO38448   2.851   1.943   2.627 -0.5295  0.1273 -0.0200
18046THY    CA138449   2.782   1.905   2.799  0.5881 -0.3154 -0.6241
18046THY    CA238450   2.769   1.814   2.907  0.1198 -0.0471  0.9683
18046THY    CP138451   2.851   1.689   2.925  0.2409  0.4313 -0.1557
18046THY    HP138452   2.908   1.672   2.834 -0.0379 -0.1098  1.5475
18046THY    CP238453   2.765   1.561   2.947 -0.1284  0.7775  0.6438
18046THY    HP238454   2.684   1.565   2.874 -0.7227  1.3391 -0.4236
18046THY    HP338455   2.723   1.554   3.048  0.9966  1.2335  0.2042
18046THY    HP438456   2.822   1.470   2.922  1.3080 -3.2240  2.4429
18046THY    CP338457   2.942   1.688   3.045 -0.9969  0.1954  0.2125
18046THY    HP538458   3.020   1.766   3.043  0.5673  1.2096 -1.2470
18046THY    HP638459   2.984   1.587   3.055 -0.2570 -0.5637  0.4336
18046THY    HP738460   2.895   1.704   3.143  0.2885  1.1121 -1.2515
18046THY    CA338461   2.674   1.846   3.011  0.3942  0.0976  1.1005
18046THY    HA338462   2.663   1.791   3.105  0.2834 -1.2739 -1.3796
18046THY    CA438463   2.592   1.960   2.994 -0.5560 -0.3946 -0.3944
18046THY    HA438464   2.521   1.991   3.070  0.4153  0.5603 -0.4329
18046THY    CA538465   2.609   2.042   2.884  1.0107  0.7571  0.0255
18046THY    CM138466   2.520   2.149   2.852 -0.2376 -0.0512 -0.6201
18046THY    HM138467   2.419   2.115   2.878 -0.6423  1.3076  1.4609
18046THY    HM238468   2.514   2.180   2.747 -0.5741  0.2020  0.2157
18046THY    HM338469   2.547   2.235   2.914  0.2326  0.1762 -0.9315
18046THY    CA638470   2.696   2.011   2.784  0.0337 -0.2495 -0.3751
18046THY    HA638471   2.710   2.078   2.700  1.1125  0.1182 -0.1320
18047THY      O38472   4.031   9.186   4.557 -0.1331  0.3507  0.1696
18047THY     HO38473   3.976   9.194   4.637 -0.4485 -0.0168  2.1025
18047THY    CA138474   4.103   9.082   4.595 -0.3474 -0.7084 -0.3795
18047THY    CA238475   4.202   9.028   4.513  0.0208  0.1564  0.1003
18047THY    CP138476   4.226   9.095   4.378 -0.2340 -0.3072  0.0045
18047THY    HP138477   4.145   9.157   4.339  0.1200 -0.0969  0.6075
18047THY    CP238478   4.253   8.999   4.262 -0.2663  0.3359 -0.2579
18047THY    HP238479   4.355   8.959   4.266 -0.2180 -0.0172 -0.1749
18047THY    HP338480   4.250   9.048   4.164 -0.6912  0.1248 -0.6986
18047THY    HP438481   4.171   8.930   4.285 -3.2915 -0.6092  2.7534
18047THY    CP338482   4.352   9.180   4.391 -0.4147  0.6309 -0.4561
18047THY    HP538483   4.385   9.216   4.293 -1.3100  0.0076 -1.2800
18047THY    HP638484   4.441   9.132   4.435 -0.6363  1.1617 -0.3825
18047THY    HP738485   4.325   9.264   4.455  0.8162  1.8603 -0.9655
18047THY    CA338486   4.264   8.907   4.554 -0.4928 -0.0934  0.9587
18047THY    HA338487   4.348   8.865   4.498  0.1824  1.2924  0.3987
18047THY    CA438488   4.241   8.857   4.682  0.5652  0.1861  0.0273
18047THY    HA438489   4.292   8.770   4.722 -0.4796  0.6127 -0.4149
18047THY    CA538490   4.146   8.919   4.768  0.0579 -0.8181  0.0313
18047THY    CM138491   4.114   8.864   4.911 -0.2900 -1.0929 -0.3972
18047THY    HM138492   4.100   8.755   4.910  2.7822  1.4376 -0.9696
18047THY    HM238493   4.030   8.912   4.962 -0.5037 -1.7191 -0.0986
18047THY    HM338494   4.201   8.884   4.975 -0.5425 -0.2178 -1.9315
18047THY    CA638495   4.075   9.029   4.721  0.3090  0.1169 -0.6112
18047THY    HA638496   4.002   9.075   4.788 -1.4843  1.9581 -5.4770
18048THY      O38497   5.231   3.242   7.336  0.6081  0.1069 -0.3849
18048THY     HO38498   5.201   3.288   7.256  0.2046  0.6477  0.3095
18048THY    CA138499   5.344   3.308   7.364 -0.1810 -0.5906  0.3293
18048THY    CA238500   5.411   3.286   7.488 -0.6649  0.3783  0.0616
18048THY    CP138501   5.350   3.192   7.592  0.3942  0.2099  0.2061
18048THY    HP138502   5.241   3.201   7.587  0.4510 -0.2791  0.6892
18048THY    CP238503   5.383   3.227   7.739  0.2320  0.2683 -0.6564
18048THY    HP238504   5.347   3.329   7.754  0.7127  1.1406 -0.6077
18048THY    HP338505   5.492   3.242   7.749  0.0680  0.7403  0.2667
18048THY    HP438506   5.348   3.148   7.807 -0.5076  0.9592  0.2525
18048THY    CP338507   5.384   3.044   7.554  0.2829 -0.0259 -0.2994
18048THY    HP538508   5.333   2.972   7.618 -0.1207 -0.0255 -0.0181
18048THY    HP638509   5.491   3.026   7.545 -0.0977 -3.1533 -1.7569
18048THY    HP738510   5.347   3.038   7.451 -1.0531  0.4279 -0.1917
18048THY    CA338511   5.537   3.348   7.513  0.5483  0.3523 -0.0918
18048THY    HA338512   5.603   3.337   7.598 -1.8561  2.2972 -0.2882
18048THY    CA438513   5.585   3.438   7.411 -0.0528 -0.7241 -0.4133
18048THY    HA438514   5.680   3.489   7.425 -0.6885  2.7948  0.0614
18048THY    CA538515   5.523   3.447   7.286 -0.2309  0.4672 -0.2340
18048THY    CM138516   5.566   3.525   7.168  0.6085 -0.9838  0.2001
18048THY    HM138517   5.494   3.606   7.149 -0.4627  2.1072  0.1134
18048THY    HM238518   5.584   3.444   7.097 -0.7042 -1.8266  0.6123
18048THY    HM338519   5.657   3.578   7.199 -0.3390 -0.2109  1.4629
18048THY    CA638520   5.398   3.389   7.272 -0.1956  0.0635 -0.1329
18048THY    HA638521   5.349   3.409   7.177 -1.4622  1.1930  2.6561
18049THY      O38522   1.564   7.059   3.638  0.5369 -0.2654 -0.1317
18049THY     HO38523   1.553   7.125   3.708 -2.5297 -0.7014 -0.0342
18049THY    CA138524   1.682   6.997   3.657  0.1011  1.0277  0.0340
18049THY    CA238525   1.715   6.886   3.575  0.0036 -0.3576  0.5541
18049THY    CP138526   1.609   6.833   3.476  0.2702  0.0431 -0.3570
18049THY    HP138527   1.539   6.915   3.458  0.4359 -2.6262 -0.7287
18049THY    CP238528   1.539   6.709   3.542  0.1123  0.3467  0.0046
18049THY    HP238529   1.438   6.703   3.502  0.1794  0.3091 -1.1240
18049THY    HP338530   1.536   6.722   3.651  2.9709  0.7267 -1.6376
18049THY    HP438531   1.591   6.614   3.529 -1.7188 -2.4222 -0.7303
18049THY    CP338532   1.657   6.804   3.335 -0.4995  0.2000  0.2731
18049THY    HP538533   1.737   6.728   3.334 -0.6325 -0.2057  0.1316
18049THY    HP638534   1.703   6.893   3.291 -1.6761  1.5726  1.5899
18049THY    HP738535   1.570   6.773   3.276  1.0421 -0.9935 -2.1818
18049THY    CA338536   1.834   6.813   3.601  0.7714  0.8042  0.1944
18049THY    HA338537   1.845   6.722   3.543  0.3683 -0.2144  0.7703
18049THY    CA438538   1.909   6.853   3.703  0.0772 -0.5916  0.3474
18049THY    HA438539   2.000   6.794   3.707  0.5971  0.1597  1.1742
18049THY    CA538540   1.873   6.955   3.793  0.0978 -0.9542 -0.1907
18049THY    CM138541   1.964   6.981   3.915 -0.3217  0.3901 -0.5154
18049THY    HM138542   1.911   7.032   3.996 -0.8282 -0.2069 -0.0713
18049THY    HM238543   2.054   7.035   3.883 -1.2499 -1.5572 -0.0486
18049THY    HM338544   2.001   6.888   3.960  1.4824 -1.0275 -0.5434
18049THY    CA638545   1.767   7.041   3.760  1.2159 -0.7496 -0.3076
18049THY    HA638546   1.747   7.121   3.831  0.8029 -0.6136 -0.5330
18050THY      O38547   3.415   6.931   4.794 -0.0077 -0.6638 -0.0650
18050THY     HO38548   3.464   6.941   4.711 -1.9903 -1.6665  2.5677
18050THY    CA138549   3.302   6.994   4.769 -0.5528  0.1733 -0.1032
18050THY    CA238550   3.190   6.978   4.856 -0.1079  0.0633 -0.0581
18050THY    CP138551   3.199   6.905   4.989 -0.1864 -0.8703 -0.0302
18050THY    HP138552   3.283   6.835   4.988  1.0163  0.3683  1.3438
18050THY    CP238553   3.080   6.808   5.011  0.0888 -0.2825 -0.5179
18050THY    HP238554   2.993   6.872   5.028  0.8308 -3.0009  1.3900
18050THY    HP338555   3.104   6.747   5.099  0.3464 -0.5375 -0.7875
18050THY    HP438556   3.078   6.750   4.918  1.3606 -0.8904  0.3599
18050THY    CP338557   3.223   6.998   5.112 -0.2932 -0.7221 -0.7577
18050THY    HP538558   3.160   7.087   5.120  1.4431  0.1005  0.4643
18050THY    HP638559   3.332   7.011   5.118 -0.1845  0.0629 -1.9147
18050THY    HP738560   3.197   6.951   5.207  1.6317  0.0053 -0.4535
18050THY    CA338561   3.065   7.037   4.814 -0.2362 -0.4080  0.2381
18050THY    HA338562   2.985   7.044   4.887  0.1852  0.1160 -0.3115
18050THY    CA438563   3.061   7.115   4.694  0.1151  0.1849  0.1469
18050THY    HA438564   2.970   7.162   4.659  1.3049 -1.3065  1.4337
18050THY    CA538565   3.180   7.130   4.612 -0.0430  0.5503  1.1462
18050THY    CM138566   3.155   7.205   4.491 -0.3692  0.5000 -0.2468
18050THY    HM138567   3.063   7.165   4.446 -1.3074  2.8193 -0.8653
18050THY    HM238568   3.239   7.192   4.422  0.2922  1.3742 -0.6946
18050THY    HM338569   3.128   7.310   4.511 -0.5799 -0.0162 -0.1995
18050THY    CA638570   3.302   7.074   4.654  0.1662 -0.3287  0.5596
18050THY    HA638571   3.386   7.071   4.585 -0.9143 -1.6353 -1.0777
18051THY      O38572   1.800   0.122   3.106 -0.0011  0.1741  0.3507
18051THY     HO38573   1.882   0.093   3.150  0.4296  0.1757  1.5033
18051THY    CA138574   1.838   0.221   3.021 -0.6070  0.7977  0.0172
18051THY    CA238575   1.754   0.331   2.997 -0.4934  0.1369 -0.3505
18051THY    CP138576   1.614   0.332   3.045  0.6684 -0.2190  0.8210
18051THY    HP138577   1.607   0.274   3.138 -1.2332 -0.9360 -0.2311
18051THY    CP238578   1.535   0.256   2.938  0.6291 -0.0357 -0.8473
18051THY    HP238579   1.575   0.156   2.917 -0.4293 -0.0923 -1.2708
18051THY    HP338580   1.528   0.309   2.842  0.3782 -1.7296 -3.7108
18051THY    HP438581   1.435   0.253   2.982  1.0639  1.2006  1.0458
18051THY    CP338582   1.558   0.465   3.065  0.2304 -0.3963  0.1743
18051THY    HP538583   1.532   0.528   2.979  0.9332 -1.3754 -0.8384
18051THY    HP638584   1.633   0.512   3.130  0.7823 -1.1353  0.3196
18051THY    HP738585   1.462   0.466   3.120  0.6471  0.3464  0.5094
18051THY    CA338586   1.809   0.445   2.926  0.3337  0.6487  0.3904
18051THY    HA338587   1.752   0.537   2.916  1.4783 -1.0116  0.9734
18051THY    CA438588   1.937   0.436   2.872  0.5503  0.2703 -0.2687
18051THY    HA438589   1.983   0.523   2.827  1.4450  1.1350 -0.2785
18051THY    CA538590   2.016   0.321   2.899 -0.7632  0.4812 -0.3656
18051THY    CM138591   2.154   0.307   2.837  0.1003 -0.2504  0.2070
18051THY    HM138592   2.196   0.212   2.872  0.8106  0.3138  0.7149
18051THY    HM238593   2.225   0.378   2.883  0.4189  1.9088 -1.4161
18051THY    HM338594   2.172   0.316   2.729 -0.0358 -0.2331  0.7199
18051THY    CA638595   1.975   0.215   2.974  0.1536  0.3698  0.1651
18051THY    HA638596   2.044   0.132   2.986  1.0765 -2.0144  0.4971
18052THY      O38597   8.021   0.810   4.337 -0.4818  0.4109 -0.0654
18052THY     HO38598   8.104   0.859   4.350  0.3339  0.1904 -1.3428
18052THY    CA138599   7.922   0.860   4.416 -0.1857 -1.0741  0.0776
18052THY    CA238600   7.810   0.788   4.455 -0.6133 -0.4044 -0.9575
18052THY    CP138601   7.803   0.644   4.417 -0.3896  1.4850  0.0542
18052THY    HP138602   7.902   0.597   4.426 -0.0858 -0.6317  0.1862
18052THY    CP238603   7.766   0.611   4.272 -0.2568  0.1654 -0.0894
18052THY    HP238604   7.664   0.649   4.258 -0.1593  3.2252  1.6677
18052THY    HP338605   7.774   0.504   4.250 -0.1827  1.4437 -0.3621
18052THY    HP438606   7.832   0.663   4.202  1.9231  2.8931  1.0806
18052THY    CP338607   7.720   0.550   4.505  0.0863 -0.2909 -0.1460
18052THY    HP538608   7.612   0.543   4.488  0.2616 -0.9690 -1.5823
18052THY    HP638609   7.734   0.596   4.604  0.4815  0.1109 -1.1056
18052THY    HP738610   7.765   0.450   4.509  1.2461 -3.3933  0.1291
18052THY    CA338611   7.706   0.851   4.532  0.1039  0.8352 -0.3197
18052THY    HA338612   7.620   0.806   4.581  0.1716  2.0610  0.7997
18052THY    CA438613   7.731   0.992   4.557 -0.3471 -0.7178  0.1519
18052THY    HA438614   7.662   1.048   4.620  0.0026 -0.8223  0.7030
18052THY    CA538615   7.843   1.063   4.515 -0.6145  0.0261  0.2817
18052THY    CM138616   7.869   1.207   4.545 -0.2633  0.6924 -0.2461
18052THY    HM138617   7.793   1.261   4.487  0.0025 -0.6116 -1.2106
18052THY    HM238618   7.973   1.227   4.518 -0.1824  0.0436 -1.4459
18052THY    HM338619   7.852   1.223   4.652 -0.9919  0.4358  0.8215
18052THY    CA638620   7.940   0.993   4.446 -0.1428  0.0323 -0.4657
18052THY    HA638621   8.027   1.047   4.411 -1.3419  1.2355  2.5400
18053THY      O38622   6.742   2.840   3.397  0.4123  0.2963  0.3150
18053THY     HO38623   6.666   2.829   3.456  0.5319  0.3260 -0.4063
18053THY    CA138624   6.699   2.786   3.282 -0.0422 -0.1952 -0.1639
18053THY    CA238625   6.783   2.725   3.179  0.1729  0.3867 -0.2406
18053THY    CP138626   6.933   2.750   3.174  0.4997  0.0619  0.0703
18053THY    HP138627   6.963   2.797   3.268 -1.5916  1.2429 -0.7623
18053THY    CP238628   6.980   2.840   3.053  0.4622  0.0283 -0.5914
18053THY    HP238629   6.913   2.927   3.050  2.6713  2.8712  1.3689
18053THY    HP338630   6.972   2.793   2.954 -0.7146 -1.7687  2.9924
18053THY    HP438631   7.078   2.889   3.055 -0.6509  0.2008  1.7958
18053THY    CP338632   7.007   2.614   3.163 -0.5947  0.4100 -0.6279
18053THY    HP538633   6.988   2.568   3.066 -0.4929 -1.0303  2.1911
18053THY    HP638634   6.996   2.546   3.249  2.7269  0.6548 -0.9895
18053THY    HP738635   7.116   2.616   3.159 -0.6080 -0.8761 -1.5078
18053THY    CA338636   6.724   2.669   3.066 -0.0411 -0.1045  0.1872
18053THY    HA338637   6.784   2.619   2.990 -0.1860  0.1803 -0.4372
18053THY    CA438638   6.584   2.656   3.071 -0.1565  0.5157 -0.2333
18053THY    HA438639   6.537   2.599   2.992  0.4512  0.8498 -1.2095
18053THY    CA538640   6.504   2.712   3.167 -0.0791 -0.1623 -0.1370
18053THY    CM138641   6.357   2.697   3.157 -0.4442  0.5483 -0.1706
18053THY    HM138642   6.310   2.776   3.097  0.1906  0.3676  0.0833
18053THY    HM238643   6.309   2.708   3.254 -0.4392  0.3367  2.4900
18053THY    HM338644   6.333   2.602   3.109 -1.4166  0.8269 -0.0763
18053THY    CA638645   6.561   2.771   3.282 -0.0032  0.7123 -0.3443
18053THY    HA638646   6.502   2.808   3.365 -1.6246  0.2182 -1.6886
18054THY      O38647   1.984   3.721   5.575 -0.9932 -0.0926 -0.0014
18054THY     HO38648   2.002   3.700   5.482  0.2060  0.4029 -1.3140
18054THY    CA138649   2.058   3.632   5.641 -0.1574 -0.0788  0.1440
18054THY    CA238650   1.997   3.560   5.741 -0.1677 -0.2413 -0.4443
18054THY    CP138651   1.848   3.583   5.776  0.7405 -0.2093 -0.9305
18054THY    HP138652   1.785   3.606   5.689  1.1787 -0.2965 -0.0134
18054THY    CP238653   1.848   3.701   5.863 -0.0655 -0.3642 -0.5411
18054THY    HP238654   1.886   3.784   5.803  1.0968  1.3681  0.2506
18054THY    HP338655   1.916   3.679   5.946 -0.2692 -0.3138 -0.9986
18054THY    HP438656   1.748   3.720   5.906 -0.9496 -2.2477 -0.7577
18054THY    CP338657   1.768   3.470   5.843 -0.2403  0.0615 -0.2585
18054THY    HP538658   1.746   3.402   5.760 -2.0944 -1.0118  1.5568
18054THY    HP638659   1.673   3.502   5.887 -0.2809  0.3705 -0.7925
18054THY    HP738660   1.832   3.429   5.922  1.8871 -0.9309  0.9819
18054THY    CA338661   2.073   3.454   5.797  0.4203  0.0426 -0.4795
18054THY    HA338662   2.034   3.378   5.865  3.0514  0.9737 -1.1147
18054THY    CA438663   2.202   3.435   5.762 -0.4975  0.4868  0.4565
18054THY    HA438664   2.258   3.346   5.790  0.9865 -0.8460  0.9194
18054THY    CA538665   2.263   3.510   5.662  0.4701 -0.0195 -0.0010
18054THY    CM138666   2.405   3.494   5.624 -0.0991  0.0141 -1.0168
18054THY    HM138667   2.432   3.391   5.648  1.2354 -1.7444 -1.1321
18054THY    HM238668   2.471   3.573   5.662 -2.7502  1.3963  0.6858
18054THY    HM338669   2.418   3.499   5.515  0.9648  0.0224 -2.7099
18054THY    CA638670   2.184   3.602   5.591  0.4741 -0.6704  0.4632
18054THY    HA638671   2.221   3.663   5.510  0.6225 -0.3131  0.8607
18055THY      O38672   4.779   4.700   2.278  0.8086  0.3032 -0.4093
18055THY     HO38673   4.715   4.684   2.349 -2.7103 -2.3641  0.4705
18055THY    CA138674   4.726   4.629   2.179  0.4020  0.5189  0.0285
18055THY    CA238675   4.675   4.696   2.065 -0.0216  0.1610  0.6529
18055THY    CP138676   4.693   4.844   2.040  0.3612  0.3740 -0.0995
18055THY    HP138677   4.789   4.878   2.080  1.0629 -0.5504 -0.9209
18055THY    CP238678   4.575   4.919   2.113  0.1160 -0.2660  0.0975
18055THY    HP238679   4.476   4.890   2.075  0.1802  0.0836 -0.5994
18055THY    HP338680   4.592   5.027   2.104  1.8573  0.5053 -0.0921
18055THY    HP438681   4.596   4.885   2.215 -0.8818 -0.0829 -0.0007
18055THY    CP338682   4.694   4.893   1.892  0.0276  0.0209  0.4697
18055THY    HP538683   4.596   4.874   1.848  1.0201 -1.6535 -1.2143
18055THY    HP638684   4.769   4.834   1.837  0.2808  0.4733  0.3648
18055THY    HP738685   4.711   5.000   1.877 -0.0721 -2.2694  0.2276
18055THY    CA338686   4.606   4.611   1.976 -0.4511 -0.0912 -0.3258
18055THY    HA338687   4.567   4.656   1.885  0.5107 -2.1322 -3.3283
18055THY    CA438688   4.599   4.474   1.987  0.3433  0.5628 -1.2061
18055THY    HA438689   4.536   4.420   1.917  0.6115 -1.2663  0.7511
18055THY    CA538690   4.657   4.412   2.097 -0.3275 -0.3680 -0.6263
18055THY    CM138691   4.627   4.263   2.114 -0.0198 -0.9049  0.9069
18055THY    HM138692   4.544   4.228   2.053 -0.4024  0.3138 -0.4261
18055THY    HM238693   4.599   4.245   2.219  2.7859 -0.3407 -0.8428
18055THY    HM338694   4.724   4.215   2.093 -0.4187 -2.5255  0.7498
18055THY    CA638695   4.712   4.490   2.200  0.4062  0.8857  0.0183
18055THY    HA638696   4.750   4.453   2.295  2.2579  0.7074  1.3373
18056THY      O38697   3.903   6.168   7.847 -0.0965 -0.0372 -0.7195
18056THY     HO38698   3.840   6.139   7.780  0.8529 -0.9455 -0.7514
18056THY    CA138699   3.834   6.256   7.922  0.1309 -0.9743 -0.2428
18056THY    CA238700   3.889   6.382   7.959  0.1166  0.0161 -0.0113
18056THY    CP138701   4.025   6.424   7.891 -0.3594 -0.0402 -0.6361
18056THY    HP138702   4.099   6.344   7.880 -1.3167  0.7971 -1.6705
18056THY    CP238703   4.090   6.533   7.982  0.4876 -0.1028  0.0256
18056THY    HP238704   4.103   6.498   8.085 -0.6634  0.0568  0.0228
18056THY    HP338705   4.032   6.626   7.970 -0.5217 -0.3736 -0.6183
18056THY    HP438706   4.181   6.561   7.927 -0.7818 -1.2417  2.2535
18056THY    CP338707   3.984   6.479   7.754 -0.8725  0.4195 -0.2814
18056THY    HP538708   3.936   6.404   7.690 -0.7102 -1.6675  1.2987
18056THY    HP638709   4.069   6.515   7.694  1.1557  3.6443  0.6817
18056THY    HP738710   3.922   6.568   7.770  0.9330  1.3204  0.8743
18056THY    CA338711   3.823   6.463   8.055  0.3534  0.7630  0.5071
18056THY    HA338712   3.860   6.560   8.089 -1.8521 -1.8194  2.4056
18056THY    CA438713   3.688   6.436   8.084 -0.5598 -0.6183  1.2829
18056THY    HA438714   3.623   6.509   8.131  1.0040  0.9229  1.7503
18056THY    CA538715   3.633   6.322   8.040 -0.2004 -0.0612 -0.0602
18056THY    CM138716   3.489   6.298   8.069 -0.3976 -0.5720  0.1763
18056THY    HM138717   3.423   6.378   8.033  1.5491 -1.0184  1.6480
18056THY    HM238718   3.484   6.288   8.178 -0.2978 -0.6850 -1.2517
18056THY    HM338719   3.465   6.198   8.031 -0.2802  1.7807 -0.8027
18056THY    CA638720   3.702   6.230   7.957  0.1086 -0.0432  0.0012
18056THY    HA638721   3.652   6.139   7.925  1.2240 -1.0371 -0.2769
18057THY      O38722   7.955   6.275   6.230  0.7088  0.3425 -0.5937
18057THY     HO38723   7.969   6.186   6.195  1.0584  0.6739 -0.6744
18057THY    CA138724   7.836   6.315   6.178 -0.1950  0.5023  0.0189
18057THY    CA238725   7.777   6.438   6.211  0.3713 -0.1056  0.4668
18057THY    CP138726   7.834   6.523   6.319 -0.1427  0.2553  0.0216
18057THY    HP138727   7.943   6.507   6.323 -0.1140 -0.3756  0.0616
18057THY    CP238728   7.779   6.473   6.449  0.3883 -1.1278 -0.7638
18057THY    HP238729   7.671   6.458   6.438  0.2698 -1.0489 -0.0019
18057THY    HP338730   7.804   6.539   6.533 -0.6945  0.5607 -2.4130
18057THY    HP438731   7.818   6.375   6.477  2.4788  3.0127  0.9939
18057THY    CP338732   7.827   6.676   6.297 -0.1607  0.5716  0.3473
18057THY    HP538733   7.858   6.701   6.194  2.3392 -0.5976 -5.6530
18057THY    HP638734   7.880   6.737   6.371 -1.8153 -0.4411  3.2128
18057THY    HP738735   7.730   6.722   6.317  0.8561 -0.0264  2.8986
18057THY    CA338736   7.646   6.465   6.164 -0.3445  0.5551  0.2486
18057THY    HA338737   7.583   6.550   6.188 -0.4993 -2.2515  0.9946
18057THY    CA438738   7.585   6.379   6.075 -0.0396  0.1525 -0.0719
18057THY    HA438739   7.486   6.384   6.031 -0.1467  0.2106 -1.3814
18057THY    CA538740   7.654   6.264   6.035  0.6123 -0.2706 -1.2448
18057THY    CM138741   7.582   6.164   5.948 -0.0315  0.2717 -0.4037
18057THY    HM138742   7.512   6.103   6.006  0.2770  1.6812  0.5405
18057THY    HM238743   7.651   6.087   5.912 -0.3080 -0.0862 -0.4848
18057THY    HM338744   7.537   6.214   5.861  0.8255  0.4897  0.7861
18057THY    CA638745   7.779   6.234   6.079 -0.2820  0.2174 -0.3476
18057THY    HA638746   7.836   6.148   6.046  0.3543  1.1108 -0.2832
18058THY      O38747   4.279   5.399   5.228 -0.1845  0.0242  0.3132
18058THY     HO38748   4.223   5.353   5.164  0.2934 -0.3523  0.2441
18058THY    CA138749   4.198   5.451   5.320 -0.1250  0.2336  0.0074
18058THY    CA238750   4.227   5.456   5.461 -0.0750  0.7298 -0.4368
18058THY    CP138751   4.359   5.405   5.514  0.1113  0.2171  0.3699
18058THY    HP138752   4.401   5.319   5.462 -0.1106  1.4889 -0.5359
18058THY    CP238753   4.342   5.351   5.659 -0.0018  0.3571 -0.5088
18058THY    HP238754   4.338   5.425   5.740 -0.2587 -0.1830  0.0789
18058THY    HP338755   4.428   5.284   5.671  2.0323  0.0862  1.8737
18058THY    HP438756   4.250   5.292   5.664 -0.5322 -1.5927  0.0606
18058THY    CP338757   4.470   5.511   5.497 -0.2134 -0.7606 -0.6298
18058THY    HP538758   4.566   5.468   5.529 -0.5410 -1.9435 -2.3555
18058THY    HP638759   4.440   5.605   5.545  0.7893 -1.1500 -0.0863
18058THY    HP738760   4.474   5.533   5.389 -0.7391 -0.6607  0.0033
18058THY    CA338761   4.130   5.532   5.538  0.3926 -0.3128  0.1617
18058THY    HA338762   4.144   5.520   5.645 -0.9380 -0.2871 -1.6389
18058THY    CA438763   4.023   5.616   5.478 -0.2608 -0.1092  0.3351
18058THY    HA438764   3.953   5.676   5.536  1.0815  0.0951  1.7666
18058THY    CA538765   4.005   5.604   5.333  0.0563  0.1658 -0.4352
18058THY    CM138766   3.896   5.682   5.262  0.3524 -0.5088  0.9885
18058THY    HM138767   3.807   5.618   5.269  0.0116  1.4629  1.6098
18058THY    HM238768   3.915   5.698   5.156  2.3523 -0.7631 -2.1961
18058THY    HM338769   3.882   5.774   5.320  3.9463  0.1182  1.2826
18058THY    CA638770   4.092   5.525   5.261 -0.2178  0.0302 -0.0987
18058THY    HA638771   4.085   5.524   5.152 -1.9670  0.0747 -2.5288
18059THY      O38772   7.504   8.575   6.028  0.2524 -0.2291  0.2194
18059THY     HO38773   7.461   8.656   5.996  0.0431 -1.6807 -0.4257
18059THY    CA138774   7.560   8.599   6.140 -0.8660 -0.3881  0.2050
18059THY    CA238775   7.556   8.507   6.251  0.2757  0.3400 -0.3965
18059THY    CP138776   7.495   8.363   6.232 -0.1705 -0.4677  0.4976
18059THY    HP138777   7.528   8.333   6.131  0.1926 -1.0049  2.5184
18059THY    CP238778   7.349   8.374   6.246  0.1432 -0.5490  0.5908
18059THY    HP238779   7.307   8.447   6.176 -1.8297 -0.1975 -0.1554
18059THY    HP338780   7.326   8.413   6.346 -0.6275  0.5262 -2.4158
18059THY    HP438781   7.304   8.278   6.220 -2.2597 -0.1853  1.5598
18059THY    CP338782   7.551   8.252   6.323  0.5944 -0.7118  0.0159
18059THY    HP538783   7.507   8.288   6.417  0.7406 -1.5641  2.6610
18059THY    HP638784   7.661   8.253   6.326  0.6816 -2.5865  0.0150
18059THY    HP738785   7.512   8.156   6.290 -0.4876 -1.7559  0.7899
18059THY    CA338786   7.621   8.551   6.370  0.2682  0.3328 -0.6162
18059THY    HA338787   7.623   8.484   6.456 -1.8367  1.3706  0.5529
18059THY    CA438788   7.678   8.678   6.379 -0.2443 -0.3580 -0.0859
18059THY    HA438789   7.705   8.721   6.476 -0.7208 -0.4963  0.5403
18059THY    CA538790   7.690   8.758   6.269 -0.1345 -0.3667 -0.0024
18059THY    CM138791   7.729   8.898   6.288  0.2462  0.1776 -0.2083
18059THY    HM138792   7.662   8.945   6.360 -0.6944 -1.0964  0.4727
18059THY    HM238793   7.727   8.955   6.194  1.0252 -0.6092 -1.4098
18059THY    HM338794   7.827   8.912   6.336  0.2427 -0.4354  2.5031
18059THY    CA638795   7.637   8.718   6.148  0.6704 -0.2054  0.6762
18059THY    HA638796   7.646   8.786   6.064  2.7827 -0.8905 -0.3370
18060THY      O38797   8.238   8.562   4.242  0.3439  0.1760  0.0798
18060THY     HO38798   8.206   8.643   4.284 -0.4702 -0.0075 -0.1303
18060THY    CA138799   8.192   8.578   4.116 -0.8881  0.9970  0.6054
18060THY    CA238800   8.185   8.466   4.029  0.4533  0.1531  0.0963
18060THY    CP138801   8.230   8.325   4.082 -0.7352 -0.0134 -0.2745
18060THY    HP138802   8.244   8.341   4.189 -2.5121 -0.1823  3.1934
18060THY    CP238803   8.362   8.273   4.013 -0.0153  0.4954  0.1924
18060THY    HP238804   8.397   8.182   4.064  1.0597 -1.7791 -0.7528
18060THY    HP338805   8.430   8.354   4.040 -0.6824  0.7193  0.6870
18060THY    HP438806   8.362   8.257   3.904 -0.1478  0.3716  0.9891
18060THY    CP338807   8.130   8.215   4.067  0.0275  0.1992  1.1629
18060THY    HP538808   8.166   8.133   4.130 -0.7770  2.1385  2.2271
18060THY    HP638809   8.133   8.171   3.967  0.8804  1.4312 -1.8177
18060THY    HP738810   8.028   8.237   4.103  0.3039  3.1837 -1.8117
18060THY    CA338811   8.135   8.489   3.895  0.0764 -0.0261  0.3330
18060THY    HA338812   8.153   8.409   3.825 -0.2346  0.5884 -0.2800
18060THY    CA438813   8.097   8.623   3.865 -0.5919  0.4034  0.6395
18060THY    HA438814   8.071   8.639   3.761  0.5722 -0.0560 -0.2829
18060THY    CA538815   8.095   8.727   3.956  0.0385  0.0915 -0.3455
18060THY    CM138816   8.052   8.863   3.907 -0.7790  0.7031 -0.4858
18060THY    HM138817   8.079   8.871   3.801  0.1269  0.8558 -1.3013
18060THY    HM238818   8.094   8.950   3.958 -0.0713  1.3704 -1.2027
18060THY    HM338819   7.942   8.872   3.909 -0.6201  2.2358  1.9513
18060THY    CA638820   8.141   8.704   4.084  0.1478  0.1306  0.1297
18060THY    HA638821   8.150   8.782   4.159 -1.8960  0.2385  0.3287
18061THY      O38822   5.223   3.779   3.249  0.3701 -0.1867 -0.5484
18061THY     HO38823   5.291   3.797   3.315  0.9693 -1.1097  0.7152
18061THY    CA138824   5.138   3.881   3.264  0.3647 -0.3064  0.4471
18061THY    CA238825   4.995   3.860   3.250  0.1431  0.0188 -0.1255
18061THY    CP138826   4.936   3.730   3.188  0.4215  0.1828 -0.3870
18061THY    HP138827   4.994   3.640   3.210 -0.3853  0.8265 -0.7595
18061THY    CP238828   4.937   3.750   3.037 -0.6874 -0.3552 -0.2049
18061THY    HP238829   4.920   3.652   2.992  0.9507 -1.6086  0.0412
18061THY    HP338830   5.040   3.772   3.007 -0.0445  0.3489 -2.0787
18061THY    HP438831   4.873   3.833   3.005 -0.5804  1.8502  0.8194
18061THY    CP338832   4.794   3.705   3.247  0.3738 -0.4117 -0.2438
18061THY    HP538833   4.765   3.601   3.227 -0.0767 -0.8619 -0.0321
18061THY    HP638834   4.723   3.768   3.193  1.9350 -2.9185 -0.4770
18061THY    HP738835   4.796   3.710   3.357 -0.4829 -0.2395 -2.3115
18061THY    CA338836   4.914   3.976   3.263  0.3484 -1.0367 -0.1576
18061THY    HA338837   4.807   3.969   3.244  0.0590 -0.1345  1.3961
18061THY    CA438838   4.971   4.102   3.293  0.4331 -0.7192  0.4923
18061THY    HA438839   4.903   4.187   3.301 -0.7182 -0.4613 -0.4295
18061THY    CA538840   5.114   4.110   3.310 -0.6103  0.0722 -0.7661
18061THY    CM138841   5.173   4.241   3.352  0.0605  0.8417 -0.2435
18061THY    HM138842   5.252   4.263   3.279  1.3197  1.2692 -2.9530
18061THY    HM238843   5.224   4.230   3.448 -1.0759  1.7319  1.8140
18061THY    HM338844   5.104   4.324   3.368  0.2146  2.8773 -0.4613
18061THY    CA638845   5.197   4.000   3.294 -0.0259 -0.4055  0.7325
18061THY    HA638846   5.304   4.009   3.313  0.1090 -0.6761 -0.1854
18062THY      O38847   2.158   3.376   6.606  0.4956 -0.3020  0.0237
18062THY     HO38848   2.090   3.438   6.638  0.5970 -2.1338  1.1578
18062THY    CA138849   2.158   3.389   6.474 -0.4271  0.0179  0.1332
18062THY    CA238850   2.276   3.370   6.401  0.2309  0.2111  0.0615
18062THY    CP138851   2.405   3.323   6.478 -0.7383  0.1340  0.0254
18062THY    HP138852   2.375   3.266   6.567 -3.8444 -1.3951 -0.9424
18062THY    CP238853   2.491   3.443   6.527 -0.0202 -0.3223  0.4264
18062THY    HP238854   2.523   3.507   6.444 -0.2482  0.8477  2.1174
18062THY    HP338855   2.576   3.412   6.589 -1.0525  0.7354 -0.3843
18062THY    HP438856   2.424   3.514   6.577 -2.3824 -1.7283 -0.6948
18062THY    CP338857   2.494   3.247   6.380  0.1038 -0.6594  0.2046
18062THY    HP538858   2.541   3.322   6.316  0.6240  0.9887  1.3474
18062THY    HP638859   2.438   3.173   6.323  0.4564  1.1507 -1.5591
18062THY    HP738860   2.575   3.192   6.430 -0.6048  0.0405 -0.2245
18062THY    CA338861   2.271   3.387   6.263 -0.5788 -0.4012  0.2555
18062THY    HA338862   2.360   3.373   6.201  0.1076  0.6897 -0.3278
18062THY    CA438863   2.147   3.408   6.196 -0.3276 -0.7388 -0.4689
18062THY    HA438864   2.145   3.413   6.087  1.7141 -0.8265 -0.5898
18062THY    CA538865   2.035   3.445   6.272  0.7868  0.3930  0.3429
18062THY    CM138866   1.903   3.468   6.198  0.5561  0.5715 -0.1385
18062THY    HM138867   1.886   3.378   6.138  0.9072  0.0211  0.1547
18062THY    HM238868   1.915   3.553   6.129 -0.3025  0.8813  0.2554
18062THY    HM338869   1.811   3.466   6.257  0.0002 -0.2816 -1.1846
18062THY    CA638870   2.038   3.426   6.411 -0.4389  0.1703 -0.0208
18062THY    HA638871   1.950   3.440   6.472 -0.6695 -0.5933  2.1429
18063THY      O38872   7.753   4.823   6.365  0.3372  0.0364  0.1709
18063THY     HO38873   7.846   4.845   6.345 -0.7058 -3.4390  2.2842
18063THY    CA138874   7.715   4.753   6.261 -0.6040  0.1157 -0.9649
18063THY    CA238875   7.633   4.640   6.272 -0.0327  0.1779  0.6523
18063THY    CP138876   7.599   4.584   6.406  0.1147  0.3636 -0.2826
18063THY    HP138877   7.587   4.663   6.481  3.3012  1.2246 -0.5124
18063THY    CP238878   7.714   4.492   6.461 -0.4129  0.1320  0.0320
18063THY    HP238879   7.741   4.402   6.405 -1.6483  0.3174 -0.4740
18063THY    HP338880   7.680   4.454   6.558  0.9142  0.6136  0.0470
18063THY    HP438881   7.806   4.548   6.480 -0.2624  3.4746 -1.1148
18063THY    CP338882   7.466   4.500   6.409  0.4290 -0.2745  0.5250
18063THY    HP538883   7.484   4.392   6.401 -1.5253  1.6679 -0.0147
18063THY    HP638884   7.397   4.543   6.335  0.8644  0.8895  3.4655
18063THY    HP738885   7.410   4.510   6.503  0.4719 -0.0787 -0.8827
18063THY    CA338886   7.605   4.569   6.155 -0.0961  0.2996 -0.9772
18063THY    HA338887   7.545   4.480   6.167 -0.3490  0.5974 -0.7683
18063THY    CA438888   7.649   4.620   6.026 -0.6844  0.2247  0.2618
18063THY    HA438889   7.618   4.559   5.941 -3.5544  2.5407 -1.8195
18063THY    CA538890   7.725   4.736   6.011 -0.7068 -0.1786 -0.5125
18063THY    CM138891   7.761   4.785   5.872  0.1227 -0.5129  0.8622
18063THY    HM138892   7.818   4.709   5.817 -0.0928 -1.8880  1.6707
18063THY    HM238893   7.825   4.874   5.867 -0.1853 -0.4606  1.0871
18063THY    HM338894   7.665   4.791   5.820 -0.2665  0.1111  0.1973
18063THY    CA638895   7.768   4.804   6.133 -0.0681 -0.5495 -0.5559
18063THY    HA638896   7.841   4.885   6.133 -0.6332  0.4369 -0.0210
18064THY      O38897   2.069   8.822   4.448  0.4932  0.4239  0.0518
18064THY     HO38898   2.032   8.829   4.359 -0.0026  0.6176 -0.0908
18064THY    CA138899   1.967   8.874   4.521 -0.1432 -0.0189  0.0794
18064THY    CA238900   1.949   8.849   4.659  0.0982  0.6380  0.1542
18064THY    CP138901   2.051   8.771   4.736  0.0736 -0.3619  0.4660
18064THY    HP138902   2.128   8.723   4.675 -0.6592 -0.6491 -0.3537
18064THY    CP238903   1.992   8.651   4.819  0.3715  0.1376 -0.1759
18064THY    HP238904   1.957   8.565   4.761  0.2713  1.7638 -1.2892
18064THY    HP338905   1.910   8.672   4.889 -0.1521 -0.0234 -1.5518
18064THY    HP438906   2.072   8.621   4.888 -0.8739  1.7787  0.1592
18064THY    CP338907   2.110   8.868   4.840  0.2523 -0.1044 -0.2935
18064THY    HP538908   2.029   8.897   4.908  0.3630  0.2983 -0.9103
18064THY    HP638909   2.145   8.962   4.796 -1.2146  1.6495  1.1567
18064THY    HP738910   2.189   8.821   4.900 -0.3420  0.0726 -1.1082
18064THY    CA338911   1.839   8.904   4.729  0.2613  0.1434 -0.1711
18064THY    HA338912   1.817   8.875   4.831  3.5381  0.2643 -2.9676
18064THY    CA438913   1.761   9.001   4.665 -0.0034 -0.7949  0.2388
18064THY    HA438914   1.688   9.053   4.726 -0.2292 -1.2467  0.4521
18064THY    CA538915   1.772   9.022   4.529  0.2370 -0.0349  0.5268
18064THY    CM138916   1.681   9.116   4.451 -0.0128  0.2984 -0.1333
18064THY    HM138917   1.613   9.174   4.515 -0.6197 -1.3866  1.0744
18064THY    HM238918   1.624   9.063   4.374  1.2751  0.8977 -2.5787
18064THY    HM338919   1.741   9.198   4.410  0.2775  1.0394  0.0405
18064THY    CA638920   1.873   8.949   4.456  0.2392  0.1695  0.0822
18064THY    HA638921   1.875   8.958   4.348 -2.6580 -0.1500 -1.6335
18065THY      O38922   2.833   7.811   2.795 -0.0349  0.0556 -0.6027
18065THY     HO38923   2.868   7.859   2.873  2.0056 -0.7516 -0.6752
18065THY    CA138924   2.699   7.850   2.783 -0.2784  0.8789  0.6637
18065THY    CA238925   2.622   7.823   2.668 -0.4095 -0.2909  0.6326
18065THY    CP138926   2.675   7.730   2.551  0.0628 -0.1090 -0.2917
18065THY    HP138927   2.775   7.696   2.579  0.4315 -2.9349 -1.8069
18065THY    CP238928   2.685   7.805   2.425 -0.6555 -0.2462 -0.7562
18065THY    HP238929   2.743   7.897   2.438 -3.5603  0.6440  1.0966
18065THY    HP338930   2.588   7.852   2.406 -0.9902  0.1903 -1.2681
18065THY    HP438931   2.728   7.752   2.339  1.4867  1.4197 -1.8665
18065THY    CP338932   2.593   7.601   2.529 -0.2277 -0.3329 -0.5250
18065THY    HP538933   2.611   7.526   2.607  0.8117  0.7925  0.8572
18065THY    HP638934   2.617   7.564   2.428  1.3372 -0.0633 -0.3293
18065THY    HP738935   2.485   7.618   2.532 -0.2638 -0.8270 -0.6479
18065THY    CA338936   2.488   7.874   2.658 -0.3379  0.0974 -0.2023
18065THY    HA338937   2.428   7.837   2.576 -2.3708  0.1991  2.5140
18065THY    CA438938   2.434   7.946   2.762  0.1480  0.4421  0.2413
18065THY    HA438939   2.329   7.971   2.773  0.6395  4.9458  1.0899
18065THY    CA538940   2.513   7.978   2.867  0.0572  0.2774 -0.7122
18065THY    CM138941   2.456   8.069   2.969 -0.5844  0.4784  0.7193
18065THY    HM138942   2.423   8.164   2.925 -1.9610 -1.1775 -0.4582
18065THY    HM238943   2.524   8.081   3.055 -1.2530  1.4620 -1.8271
18065THY    HM338944   2.366   8.024   3.013 -1.6242  0.2037  2.4459
18065THY    CA638945   2.641   7.926   2.882 -0.0270  0.3507 -0.1908
18065THY    HA638946   2.698   7.953   2.971 -2.3019  0.9162  3.3270
18066THY      O38947   1.254   5.249   5.470  0.8623 -0.3170 -0.0856
18066THY     HO38948   1.231   5.163   5.433  1.1066 -0.2863 -0.1648
18066THY    CA138949   1.345   5.228   5.564  0.3505  0.3165 -0.5629
18066THY    CA238950   1.360   5.323   5.672 -0.1778  0.5865 -0.0882
18066THY    CP138951   1.272   5.449   5.690  0.1145 -0.5007 -0.0150
18066THY    HP138952   1.225   5.469   5.593 -2.2210  0.3512 -1.0319
18066THY    CP238953   1.340   5.575   5.745 -0.4837  0.0959 -0.1556
18066THY    HP238954   1.266   5.654   5.726 -0.0061  0.8104  0.4758
18066THY    HP338955   1.432   5.599   5.691 -1.6429 -1.1890  1.6656
18066THY    HP438956   1.359   5.571   5.853 -0.1390  0.0044 -0.9697
18066THY    CP338957   1.152   5.430   5.783  0.0919 -1.0021  0.4662
18066THY    HP538958   1.077   5.508   5.769  0.8518 -0.2980  1.3470
18066THY    HP638959   1.189   5.430   5.886  0.2089 -1.0280 -0.7891
18066THY    HP738960   1.108   5.331   5.766 -0.0603  2.5228 -0.1883
18066THY    CA338961   1.463   5.308   5.759 -0.5265  0.0121  0.0822
18066THY    HA338962   1.486   5.381   5.837 -1.2708 -0.7635  1.1746
18066THY    CA438963   1.549   5.195   5.747  0.4793 -0.4166 -0.9281
18066THY    HA438964   1.628   5.187   5.821  2.8958 -2.6241  0.8253
18066THY    CA538965   1.532   5.105   5.643  0.2572 -0.0248  1.0491
18066THY    CM138966   1.631   4.983   5.630 -0.3729  0.2877 -0.6534
18066THY    HM138967   1.721   5.007   5.572 -0.6586  0.5074  1.0617
18066THY    HM238968   1.591   4.890   5.587  1.6530 -1.7885 -0.6609
18066THY    HM338969   1.674   4.965   5.729 -2.4996  1.1224 -1.3803
18066THY    CA638970   1.430   5.126   5.552  0.4814  0.3795  0.0115
18066THY    HA638971   1.435   5.063   5.463 -0.4540  1.6606 -1.9958
18067THY      O38972   4.687   7.233   4.580  0.3295 -0.1167 -0.3276
18067THY     HO38973   4.599   7.193   4.591 -1.1983 -0.4005  2.6354
18067THY    CA138974   4.706   7.299   4.699  0.0515 -0.3364  0.0491
18067THY    CA238975   4.748   7.434   4.710 -0.4136  0.9992 -0.7249
18067THY    CP138976   4.779   7.516   4.587 -0.1076 -0.0073  0.1826
18067THY    HP138977   4.804   7.448   4.505 -0.8637  0.2876 -0.4579
18067THY    CP238978   4.906   7.595   4.608 -0.5088  0.3858 -0.0254
18067THY    HP238979   4.896   7.680   4.676 -0.5286 -1.5550  1.6047
18067THY    HP338980   4.947   7.633   4.513 -0.3438  0.1351 -0.8216
18067THY    HP438981   4.987   7.529   4.642 -0.4345  0.6677  0.2071
18067THY    CP338982   4.654   7.599   4.563 -0.4611 -0.3924  0.8510
18067THY    HP538983   4.658   7.667   4.477  1.4596 -2.1898 -1.3631
18067THY    HP638984   4.622   7.661   4.648  0.3550  0.2811  0.3710
18067THY    HP738985   4.571   7.529   4.547 -0.0213  1.1251 -0.0621
18067THY    CA338986   4.743   7.493   4.836 -0.6616 -0.3296  0.2763
18067THY    HA338987   4.769   7.597   4.849  0.1944 -0.6115  0.1081
18067THY    CA438988   4.700   7.414   4.946 -0.1408  0.5151 -0.3720
18067THY    HA438989   4.688   7.462   5.042 -3.6242  0.7972 -1.5064
18067THY    CA538990   4.681   7.275   4.933  0.1725  0.0570  0.1310
18067THY    CM138991   4.643   7.187   5.045  0.6786  0.3774 -0.3338
18067THY    HM138992   4.700   7.224   5.131 -1.1268  1.7104 -0.4949
18067THY    HM238993   4.662   7.081   5.026 -0.7915 -2.6248 -0.1715
18067THY    HM338994   4.538   7.210   5.067  0.4315 -1.3630  0.3410
18067THY    CA638995   4.677   7.212   4.808  0.3285 -0.6014 -0.7041
18067THY    HA638996   4.652   7.107   4.802  0.7761  2.5329 -1.0906
18068THY      O38997   7.316   3.843   7.482  0.5985 -0.5443  0.2837
18068THY     HO38998   7.395   3.879   7.527  1.3248 -1.5024 -0.0724
18068THY    CA138999   7.348   3.830   7.356 -0.3205 -0.0737  0.5033
18068THY    CA239000   7.260   3.780   7.264  0.3646  0.1577 -0.3082
18068THY    CP139001   7.123   3.724   7.308  0.1016  0.3101 -0.6010
18068THY    HP139002   7.102   3.762   7.408  0.4756 -0.6842  2.6042
18068THY    CP239003   7.124   3.573   7.301 -0.0216 -0.1778 -0.5677
18068THY    HP239004   7.028   3.534   7.339 -0.7765 -0.7953  0.6307
18068THY    HP339005   7.201   3.541   7.372  1.2626 -1.1236  0.3143
18068THY    HP439006   7.127   3.535   7.198  2.3710 -0.2952 -0.2078
18068THY    CP339007   7.004   3.781   7.227 -0.0314  0.0720 -0.0944
18068THY    HP539008   7.011   3.759   7.120 -0.9560 -0.1918  0.8616
18068THY    HP639009   7.014   3.889   7.236  1.2790 -1.3874 -0.0647
18068THY    HP739010   6.917   3.731   7.272  0.0995 -0.2089 -0.5818
18068THY    CA339011   7.294   3.777   7.127  0.0879  0.3047  0.0772
18068THY    HA339012   7.228   3.731   7.054 -1.1207 -0.0895  2.3121
18068THY    CA439013   7.409   3.838   7.082 -0.8834  0.6306 -0.7883
18068THY    HA439014   7.444   3.839   6.979  0.4804  1.0681  0.2552
18068THY    CA539015   7.482   3.911   7.174 -0.2461  0.7537 -0.3867
18068THY    CM139016   7.603   3.991   7.131  0.4103 -0.1475 -0.2211
18068THY    HM139017   7.592   4.033   7.031 -0.1675 -0.6007 -1.3977
18068THY    HM239018   7.687   3.921   7.120 -0.0822  1.1958 -1.0658
18068THY    HM339019   7.631   4.074   7.197  0.6421  1.4154 -1.4863
18068THY    CA639020   7.455   3.907   7.307 -0.5009  0.0881  0.8142
18068THY    HA639021   7.528   3.954   7.373  1.4525 -1.0473 -0.4658
18069THY      O39022   2.845   2.061   2.474  0.0695 -0.2268  0.2845
18069THY     HO39023   2.853   2.157   2.460  1.8029  1.8826  0.5208
18069THY    CA139024   2.730   2.033   2.410 -0.4055 -0.7391  0.6278
18069THY    CA239025   2.709   1.899   2.363 -0.5050 -0.4575  0.0053
18069THY    CP139026   2.835   1.810   2.344  0.0390 -0.2062  0.6934
18069THY    HP139027   2.922   1.845   2.400  0.6329  0.0285 -1.0819
18069THY    CP239028   2.879   1.805   2.193  0.4200  0.2102 -0.1066
18069THY    HP239029   2.974   1.752   2.181 -0.0267  0.6311 -1.0162
18069THY    HP339030   2.900   1.897   2.136 -0.0127  0.6762  0.2862
18069THY    HP439031   2.796   1.755   2.142  0.4724 -0.4204  0.4290
18069THY    CP339032   2.805   1.667   2.396  0.1141  1.0611  0.6353
18069THY    HP539033   2.788   1.685   2.502 -0.4810  1.5445 -2.3600
18069THY    HP639034   2.890   1.599   2.390 -0.7502 -0.1082 -0.3845
18069THY    HP739035   2.712   1.615   2.370 -0.6687  2.0108  1.5207
18069THY    CA339036   2.576   1.849   2.332  0.4881  0.4424 -0.0768
18069THY    HA339037   2.556   1.757   2.278 -1.1017 -0.1201  0.5702
18069THY    CA439038   2.467   1.934   2.353 -0.4406 -0.2129 -0.3157
18069THY    HA439039   2.362   1.906   2.344 -1.0168  2.3081  0.7132
18069THY    CA539040   2.494   2.063   2.410 -0.4462  0.8000  0.1356
18069THY    CM139041   2.383   2.161   2.417  0.9535  0.6134 -0.2181
18069THY    HM139042   2.302   2.143   2.345  1.4935  0.2129 -1.1517
18069THY    HM239043   2.425   2.262   2.407  2.4522 -1.6864 -0.9628
18069THY    HM339044   2.326   2.146   2.509 -0.3896 -0.1446  0.0597
18069THY    CA639045   2.624   2.119   2.427  0.0713  0.2068 -0.1143
18069THY    HA639046   2.641   2.217   2.470 -0.4910 -0.6855  0.3959
18070THY      O39047   1.622   2.155   4.150 -0.1141 -0.2249 -0.3070
18070THY     HO39048   1.620   2.251   4.162  0.2877 -1.3327 -0.1517
18070THY    CA139049   1.505   2.119   4.094  0.2834 -0.4411 -0.4845
18070THY    CA239050   1.446   2.002   4.145 -0.0030 -0.3204 -0.3453
18070THY    CP139051   1.521   1.910   4.251  0.2702  0.1923 -0.0805
18070THY    HP139052   1.575   1.977   4.320  0.8944 -0.7194  0.3748
18070THY    CP239053   1.615   1.810   4.184  0.2731 -0.0658  0.1477
18070THY    HP239054   1.632   1.744   4.269 -3.0192  3.2339  3.1035
18070THY    HP339055   1.706   1.864   4.156 -0.8437  0.2354  2.2781
18070THY    HP439056   1.572   1.766   4.093  0.5051  0.2426 -0.7370
18070THY    CP339057   1.422   1.837   4.343 -0.0031 -0.7765  0.0177
18070THY    HP539058   1.482   1.799   4.427 -1.5048  0.1792 -0.3477
18070THY    HP639059   1.368   1.759   4.288 -0.6403  0.4671 -0.4436
18070THY    HP739060   1.363   1.919   4.384  1.1405 -1.4608  1.2319
18070THY    CA339061   1.314   1.973   4.101  0.1621  0.1663 -1.0894
18070THY    HA339062   1.264   1.884   4.140  0.0454 -0.4879 -1.3253
18070THY    CA439063   1.254   2.059   4.003 -0.2817  0.1086 -0.7895
18070THY    HA439064   1.149   2.050   3.976 -0.1879  0.0033 -1.6783
18070THY    CA539065   1.313   2.177   3.959 -0.0462 -0.2188 -0.5953
18070THY    CM139066   1.232   2.265   3.870 -0.3679 -0.5991  0.0163
18070THY    HM139067   1.165   2.328   3.929 -0.6558 -0.0738 -0.7607
18070THY    HM239068   1.168   2.212   3.798 -3.0081  1.8232 -0.2967
18070THY    HM339069   1.300   2.340   3.828 -1.6493  0.1667  1.6618
18070THY    CA639070   1.439   2.208   4.010 -0.5561  0.2121 -0.4997
18070THY    HA639071   1.486   2.296   3.968 -2.2237 -0.4362  0.1315
18071THY      O39072   5.284   2.415   1.877  0.4598  0.2205  0.2551
18071THY     HO39073   5.261   2.320   1.877 -2.3487 -0.9946  0.8294
18071THY    CA139074   5.186   2.476   1.944 -1.3223 -0.0977  0.5459
18071THY    CA239075   5.217   2.574   2.044  0.1705 -0.0768 -0.3489
18071THY    CP139076   5.364   2.607   2.070  0.2215  0.8233  0.1771
18071THY    HP139077   5.417   2.513   2.049 -0.4983  0.1841 -0.0935
18071THY    CP239078   5.389   2.613   2.223 -0.0002  0.4568 -0.3099
18071THY    HP239079   5.341   2.701   2.267  1.2844  0.3934  0.4447
18071THY    HP339080   5.495   2.626   2.248  0.2207 -0.5334 -0.1088
18071THY    HP439081   5.362   2.518   2.269 -0.9853  0.7694  0.1085
18071THY    CP339082   5.418   2.719   1.984  0.5004 -0.3116  0.6345
18071THY    HP539083   5.439   2.682   1.883  0.1980 -0.4224  0.7544
18071THY    HP639084   5.513   2.760   2.019  0.9702  0.0764 -0.7478
18071THY    HP739085   5.347   2.802   1.976  1.3037 -0.0562  1.3590
18071THY    CA339086   5.110   2.633   2.115 -0.1504  0.4452  0.4532
18071THY    HA339087   5.122   2.712   2.188 -1.3996  0.0938  0.9924
18071THY    CA439088   4.979   2.590   2.091 -0.3324 -0.0358 -0.5967
18071THY    HA439089   4.899   2.615   2.160  0.4316  0.5637  0.2862
18071THY    CA539090   4.955   2.493   1.996  0.2566  0.1193  0.8484
18071THY    CM139091   4.821   2.426   1.988 -0.9409  0.5956 -0.6976
18071THY    HM139092   4.742   2.491   2.028  1.3568  0.0339  2.6739
18071THY    HM239093   4.810   2.333   2.045 -3.7791 -0.2628 -0.9709
18071THY    HM339094   4.798   2.405   1.883  0.2225  0.1249  0.2506
18071THY    CA639095   5.058   2.433   1.919  0.4310 -0.2565 -0.2072
18071THY    HA639096   5.040   2.352   1.848 -0.9514 -1.4381  1.0506
18072THY      O39097   6.996   8.012   5.955  0.0463  0.1416  0.3708
18072THY     HO39098   7.037   7.924   5.957 -0.8480 -0.4160 -0.0763
18072THY    CA139099   7.091   8.108   5.942  0.0077 -0.6248  0.1434
18072THY    CA239100   7.059   8.242   5.960  0.9237  0.0640 -0.1823
18072THY    CP139101   6.908   8.281   5.985 -0.3375  0.1927  0.3004
18072THY    HP139102   6.859   8.205   6.048 -0.0494 -0.0469 -0.0888
18072THY    CP239103   6.820   8.292   5.856  0.1341 -0.4274  0.6332
18072THY    HP239104   6.844   8.383   5.800  0.4537 -0.9202  0.2453
18072THY    HP339105   6.714   8.279   5.880  0.0029 -0.0318  2.2425
18072THY    HP439106   6.836   8.206   5.790  2.0610 -1.0080  1.3890
18072THY    CP339107   6.908   8.426   6.041  0.4334  0.5158 -0.3508
18072THY    HP539108   6.924   8.496   5.959 -0.5776  0.7546  0.1800
18072THY    HP639109   6.986   8.431   6.118 -0.1590  1.0455  1.1244
18072THY    HP739110   6.813   8.450   6.089 -1.2699 -2.4128 -0.6908
18072THY    CA339111   7.163   8.340   5.944  0.5043 -0.0391  0.1026
18072THY    HA339112   7.139   8.446   5.951  0.5806 -3.0103  0.4054
18072THY    CA439113   7.292   8.296   5.917 -0.3845 -1.3333  0.3216
18072THY    HA439114   7.364   8.378   5.917 -1.5613 -1.0058  1.3906
18072THY    CA539115   7.320   8.157   5.899 -0.0917 -0.0524 -0.8008
18072THY    CM139116   7.465   8.107   5.886  0.0777 -0.2630 -1.2979
18072THY    HM139117   7.536   8.185   5.855 -0.2240 -0.4510 -1.0919
18072THY    HM239118   7.469   8.031   5.808 -0.6413 -1.8568  0.2283
18072THY    HM339119   7.500   8.071   5.983  0.6659 -0.1370 -0.4379
18072THY    CA639120   7.215   8.063   5.911 -0.0188 -0.1951 -0.2590
18072THY    HA639121   7.230   7.961   5.877 -1.8661 -0.7812 -0.3778
18073THY      O39122   0.331   3.809   4.140 -0.4035  0.3139 -0.1331
18073THY     HO39123   0.346   3.881   4.077 -0.8766  1.1320  0.7004
18073THY    CA139124   0.441   3.786   4.222 -0.1479  0.8643  1.2980
18073THY    CA239125   0.450   3.669   4.305  0.4386  0.3734 -0.4709
18073THY    CP139126   0.348   3.559   4.294 -0.4091 -0.5036  0.4718
18073THY    HP139127   0.263   3.575   4.227 -0.1811 -0.8168  0.3801
18073THY    CP239128   0.300   3.518   4.435  0.1102 -0.6456  0.7226
18073THY    HP239129   0.251   3.603   4.484  0.1825 -0.4541  0.6528
18073THY    HP339130   0.388   3.500   4.497 -0.3636 -0.1484  0.0640
18073THY    HP439131   0.244   3.424   4.436  0.6874  3.6499  0.2390
18073THY    CP339132   0.414   3.429   4.235  0.3690  0.2287 -0.3180
18073THY    HP539133   0.471   3.448   4.144 -0.7734 -0.6464 -0.9143
18073THY    HP639134   0.338   3.355   4.205  0.3289 -3.0680  0.9244
18073THY    HP739135   0.485   3.375   4.299 -1.2434  1.2137 -1.3628
18073THY    CA339136   0.573   3.657   4.372 -0.0314  0.5767 -0.3827
18073THY    HA339137   0.598   3.559   4.413  0.3250 -1.3319 -1.1249
18073THY    CA439138   0.663   3.761   4.374 -0.3594 -0.0024  0.8444
18073THY    HA439139   0.760   3.755   4.423 -0.1292 -0.3941  1.2813
18073THY    CA539140   0.645   3.886   4.309  0.1395  0.2867  0.1948
18073THY    CM139141   0.749   3.995   4.321 -0.0495  0.1618 -0.0751
18073THY    HM139142   0.700   4.089   4.348  1.5695  2.3872  0.2208
18073THY    HM239143   0.800   4.009   4.225 -1.0243 -0.1293  1.7586
18073THY    HM339144   0.814   3.983   4.409  2.4329 -1.4819  0.5853
18073THY    CA639145   0.533   3.892   4.234  0.2019  0.5179  0.3206
18073THY    HA639146   0.504   3.987   4.191 -1.1309  2.9076  1.0740
18074THY      O39147   6.791   0.370   4.460  0.2194  0.0449  0.2026
18074THY     HO39148   6.726   0.392   4.530  2.5554  2.2141  0.7358
18074THY    CA139149   6.903   0.442   4.497  0.9005  0.3927  0.1507
18074THY    CA239150   7.026   0.409   4.445  0.3388 -0.3451 -0.7887
18074THY    CP139151   7.045   0.295   4.328 -0.2321 -0.2481  0.3122
18074THY    HP139152   6.964   0.304   4.255 -0.2428 -0.3758 -0.6964
18074THY    CP239153   7.034   0.159   4.398  0.1449 -0.2787  0.1167
18074THY    HP239154   6.931   0.131   4.424  0.5492 -0.4493 -1.6513
18074THY    HP339155   7.097   0.160   4.488  0.6737 -0.3732 -4.4970
18074THY    HP439156   7.076   0.076   4.340  0.2514  2.0239 -1.5442
18074THY    CP339157   7.184   0.305   4.258  0.1063  0.3328 -0.5786
18074THY    HP539158   7.258   0.287   4.337 -1.9284  2.7225  0.9175
18074THY    HP639159   7.193   0.406   4.217  0.4602  0.0560 -0.7186
18074THY    HP739160   7.201   0.244   4.168 -0.1104 -1.2446  1.5655
18074THY    CA339161   7.141   0.466   4.517  0.2613  0.6334 -0.4001
18074THY    HA339162   7.240   0.430   4.488  0.3177  0.7366 -0.3259
18074THY    CA439163   7.121   0.564   4.617 -0.0459 -0.0682 -0.2703
18074THY    HA439164   7.206   0.606   4.669 -0.5503 -1.5544  2.8633
18074THY    CA539165   6.998   0.604   4.644  0.2868  0.4500 -0.7070
18074THY    CM139166   6.976   0.696   4.761  0.1561  0.0319 -0.0612
18074THY    HM139167   6.944   0.651   4.855  1.7196  0.3921 -0.4895
18074THY    HM239168   6.898   0.766   4.730 -0.1688  1.8478  0.4205
18074THY    HM339169   7.067   0.752   4.785  0.3456  0.0045 -0.3537
18074THY    CA639170   6.889   0.547   4.588 -0.3018 -0.2654 -0.1033
18074THY    HA639171   6.792   0.590   4.613 -0.5260 -2.6545  0.9542
18075THY      O39172   7.472   3.751   4.244  1.0505 -1.1404  0.3893
18075THY     HO39173   7.519   3.813   4.185  2.1736  1.7196  2.4874
18075THY    CA139174   7.475   3.631   4.182  0.5289  0.2211  0.4827
18075THY    CA239175   7.377   3.528   4.209 -0.3527  0.4203 -0.0485
18075THY    CP139176   7.283   3.533   4.330  0.1542 -0.1100  0.7602
18075THY    HP139177   7.254   3.636   4.357 -0.3526  0.8879  0.3698
18075THY    CP239178   7.350   3.479   4.458 -0.3478 -0.4333 -0.0229
18075THY    HP239179   7.286   3.498   4.545  0.2323 -0.3259  1.5952
18075THY    HP339180   7.449   3.524   4.475 -1.3010 -1.5733  2.7134
18075THY    HP439181   7.366   3.371   4.457 -1.9721  0.5229 -0.3065
18075THY    CP339182   7.142   3.455   4.314  0.8452  0.2865  0.1813
18075THY    HP539183   7.091   3.494   4.225 -0.4695  0.6732 -0.6060
18075THY    HP639184   7.078   3.484   4.398 -1.3057 -1.2314  0.0519
18075THY    HP739185   7.158   3.346   4.310  2.4811  2.1825  0.3026
18075THY    CA339186   7.379   3.416   4.128 -0.4547 -0.2764 -0.0822
18075THY    HA339187   7.311   3.333   4.145 -1.2642 -1.1170  0.3889
18075THY    CA439188   7.477   3.401   4.026  0.1194 -0.0055 -0.1660
18075THY    HA439189   7.473   3.310   3.966  2.5193  0.2698 -0.4975
18075THY    CA539190   7.560   3.505   3.992  0.7595  0.2970  0.0318
18075THY    CM139191   7.655   3.492   3.882 -0.0601  0.0831 -0.7985
18075THY    HM139192   7.589   3.470   3.797 -0.8846  0.2320  0.8952
18075THY    HM239193   7.728   3.412   3.893  0.0719  0.6495 -0.6044
18075THY    HM339194   7.688   3.595   3.867 -3.2709  0.6947  0.4648
18075THY    CA639195   7.557   3.625   4.069 -0.0449 -0.0658  0.2571
18075THY    HA639196   7.616   3.713   4.044  1.1266  2.2158  0.1838
18076THY      O39197   8.121   2.503   6.552 -0.0101  0.2565  1.1395
18076THY     HO39198   8.208   2.465   6.530 -0.4039 -0.3981  0.5997
18076THY    CA139199   8.129   2.617   6.481 -0.0003 -0.4326 -0.2540
18076THY    CA239200   8.025   2.711   6.485  0.4625 -0.0398 -0.5479
18076THY    CP139201   7.894   2.677   6.555  0.0260  0.5117 -0.1054
18076THY    HP139202   7.896   2.587   6.617 -1.2625 -1.4528 -1.5637
18076THY    CP239203   7.784   2.664   6.451  0.2303  0.5894  0.4457
18076THY    HP239204   7.686   2.699   6.486  0.2278  3.1706 -1.8053
18076THY    HP339205   7.759   2.560   6.428 -0.2795 -1.2195  0.9355
18076THY    HP439206   7.817   2.712   6.358  0.2517 -0.4942 -1.5523
18076THY    CP339207   7.863   2.792   6.649  0.8750 -0.6115 -0.1317
18076THY    HP539208   7.842   2.880   6.587  2.2100 -1.3755 -0.3202
18076THY    HP639209   7.943   2.810   6.721 -2.0361  2.3080  2.1656
18076THY    HP739210   7.776   2.757   6.706  1.5718  1.1050  0.8235
18076THY    CA339211   8.034   2.837   6.414  1.0376  0.1641  0.3139
18076THY    HA339212   7.952   2.907   6.405 -0.3054 -0.7863 -1.2961
18076THY    CA439213   8.154   2.856   6.345  0.0234  0.0831 -0.9755
18076THY    HA439214   8.164   2.944   6.283 -3.3248 -0.6427 -0.9869
18076THY    CA539215   8.251   2.763   6.342  0.1554  0.4775 -0.6486
18076THY    CM139216   8.378   2.791   6.260  0.1837 -0.0490  0.2305
18076THY    HM139217   8.373   2.887   6.208  1.0006 -1.6298 -0.5468
18076THY    HM239218   8.389   2.713   6.184 -2.6519  1.8165 -2.2330
18076THY    HM339219   8.469   2.777   6.320  0.3088 -0.4998 -1.0411
18076THY    CA639220   8.243   2.646   6.410  0.5515  0.2412  0.6472
18076THY    HA639221   8.321   2.571   6.422 -0.3462  1.1671 -0.1689
18077THY      O39222   6.700   2.575   6.268 -0.1832 -0.1012 -0.0974
18077THY     HO39223   6.690   2.484   6.234 -3.2969 -0.1288  0.1410
18077THY    CA139224   6.713   2.553   6.400 -0.0646  0.0138 -0.6467
18077THY    CA239225   6.773   2.658   6.480 -0.0186 -0.1716  0.0384
18077THY    CP139226   6.809   2.800   6.425 -0.6488  0.0282  0.4056
18077THY    HP139227   6.819   2.793   6.316 -1.8677 -0.0793  0.0246
18077THY    CP239228   6.943   2.851   6.479 -0.4200 -1.1426 -0.1112
18077THY    HP239229   7.013   2.767   6.487  0.2516  2.0945  0.6441
18077THY    HP339230   6.939   2.878   6.585  0.5365 -0.2181 -3.1526
18077THY    HP439231   6.986   2.929   6.415  0.8255  0.1661  0.3106
18077THY    CP339232   6.694   2.898   6.449  0.1345  0.1664  0.3621
18077THY    HP539233   6.677   2.884   6.556  1.1563  0.1755 -0.9873
18077THY    HP639234   6.610   2.888   6.378 -1.7782  2.1061  1.7157
18077THY    HP739235   6.729   3.000   6.434 -1.2174 -1.2131  0.6668
18077THY    CA339236   6.806   2.624   6.616  0.5181 -0.5205 -0.6319
18077THY    HA339237   6.846   2.694   6.689  2.7380 -1.2951 -0.9888
18077THY    CA439238   6.750   2.504   6.668 -0.7064  0.4591  0.6970
18077THY    HA439239   6.761   2.469   6.770 -1.8451 -0.3407 -2.3151
18077THY    CA539240   6.679   2.412   6.589  0.1232  1.1190  0.3253
18077THY    CM139241   6.631   2.275   6.654 -0.2853  0.2855 -0.6596
18077THY    HM139242   6.701   2.226   6.724 -0.3239  0.1711 -0.8819
18077THY    HM239243   6.614   2.205   6.571  0.5892  0.2842 -0.8820
18077THY    HM339244   6.535   2.286   6.705  0.8268  1.9921  2.2243
18077THY    CA639245   6.672   2.429   6.449  0.3390  0.2841  0.2498
18077THY    HA639246   6.620   2.355   6.389 -0.7729  2.4911 -0.8499
18078THY      O39247   8.270   5.334   6.447 -0.4983 -0.3261  0.0817
18078THY     HO39248   8.197   5.392   6.422  1.0855 -0.8391  1.9501
18078THY    CA139249   8.358   5.347   6.345 -0.1317 -0.3935 -0.0508
18078THY    CA239250   8.491   5.309   6.356 -0.6351 -0.1729  0.0134
18078THY    CP139251   8.538   5.254   6.493 -0.0737  0.0946  0.7379
18078THY    HP139252   8.465   5.197   6.551 -0.3331  1.4942  2.4049
18078THY    CP239253   8.587   5.367   6.581  0.6357 -0.0037  0.2504
18078THY    HP239254   8.498   5.429   6.596 -0.3423  1.4306 -1.4000
18078THY    HP339255   8.675   5.410   6.532  0.1867  0.0569  1.2668
18078THY    HP439256   8.618   5.337   6.682  0.8376  0.2228  1.2032
18078THY    CP339257   8.655   5.153   6.488  0.1934  0.3018  0.8115
18078THY    HP539258   8.751   5.191   6.450  0.9461  0.5478 -0.7537
18078THY    HP639259   8.637   5.070   6.419  0.4779  2.9674 -1.5768
18078THY    HP739260   8.666   5.103   6.584 -1.6040  0.6444  1.0372
18078THY    CA339261   8.576   5.313   6.248 -0.6547  0.1194  0.1382
18078THY    HA339262   8.682   5.293   6.263 -1.2031  0.6817 -2.8185
18078THY    CA439263   8.530   5.369   6.129 -0.0698 -0.1275 -0.1825
18078THY    HA439264   8.596   5.388   6.044 -1.4153 -0.6833  2.3620
18078THY    CA539265   8.392   5.398   6.119  0.2347  0.4552  0.3179
18078THY    CM139266   8.338   5.445   5.987 -0.0487  0.3868  0.7939
18078THY    HM139267   8.335   5.370   5.907 -1.1256  0.6916  0.4893
18078THY    HM239268   8.390   5.533   5.947  0.1741 -1.9230 -0.3292
18078THY    HM339269   8.235   5.475   6.011 -0.5310  1.5096 -1.5854
18078THY    CA639270   8.309   5.392   6.227 -0.4881 -0.5165 -0.3810
18078THY    HA639271   8.206   5.425   6.213 -0.3433 -2.9349 -0.7582
18079THY      O39272   6.337   7.892   2.505 -0.3907 -0.4302  0.3324
18079THY     HO39273   6.265   7.840   2.544 -1.7218 -1.5012  1.3013
18079THY    CA139274   6.311   8.023   2.534  0.8055  0.4906 -0.0537
18079THY    CA239275   6.338   8.126   2.446 -0.0680 -0.1220 -0.2948
18079THY    CP139276   6.424   8.102   2.320 -0.0506  0.4386  0.4561
18079THY    HP139277   6.403   7.998   2.292  1.3352  2.3962 -0.3930
18079THY    CP239278   6.572   8.132   2.352 -0.0224  0.1562  0.2410
18079THY    HP239279   6.629   8.090   2.268 -0.1462  0.0106  0.3680
18079THY    HP339280   6.620   8.086   2.439  1.2066 -1.5780 -1.9424
18079THY    HP439281   6.587   8.240   2.344 -0.1170  1.6104  0.3903
18079THY    CP339282   6.382   8.183   2.192  0.0538  0.4056 -0.0344
18079THY    HP539283   6.279   8.156   2.167  0.1239  0.3245 -0.2340
18079THY    HP639284   6.443   8.148   2.107 -0.8153 -1.1952  2.0828
18079THY    HP739285   6.404   8.290   2.206 -0.6899 -2.1421  0.5249
18079THY    CA339286   6.307   8.253   2.480 -0.5524 -0.5732 -0.6585
18079THY    HA339287   6.327   8.335   2.412  0.7070 -0.4599 -0.8561
18079THY    CA439288   6.247   8.280   2.602 -0.0786  1.2463 -0.3006
18079THY    HA439289   6.238   8.382   2.640  1.8802 -0.2057  0.4793
18079THY    CA539290   6.224   8.176   2.691  0.2712 -0.1055 -0.5660
18079THY    CM139291   6.154   8.212   2.826  0.4601 -0.6041  0.0715
18079THY    HM139292   6.149   8.141   2.909  2.0291 -2.3267 -2.2006
18079THY    HM239293   6.048   8.224   2.803  0.8374 -4.1263 -2.0087
18079THY    HM339294   6.194   8.309   2.860 -0.1180 -0.0828  0.1323
18079THY    CA639295   6.253   8.043   2.659  0.1646  0.7836 -0.2296
18079THY    HA639296   6.243   7.965   2.734 -0.3622 -0.5676 -1.5086
18080THY      O39297   1.982   2.654   2.660 -0.0437  0.4650  0.5221
18080THY     HO39298   1.971   2.749   2.640 -1.9242  1.1440  0.4809
18080THY    CA139299   1.868   2.598   2.678  0.1191 -0.4265 -0.6285
18080THY    CA239300   1.841   2.469   2.628  0.4032 -0.6067  0.1701
18080THY    CP139301   1.946   2.387   2.558  0.1344 -0.1240 -0.5383
18080THY    HP139302   2.046   2.428   2.576  1.0180 -1.3776 -1.9962
18080THY    CP239303   1.925   2.402   2.415  0.0790  0.0308 -0.3283
18080THY    HP239304   1.830   2.358   2.383  0.2295 -0.0424 -0.6084
18080THY    HP339305   2.002   2.354   2.353 -1.4971 -1.6065 -0.8602
18080THY    HP439306   1.940   2.506   2.385 -0.9261  1.7340  0.3382
18080THY    CP339307   1.952   2.237   2.597 -0.4144 -0.1621 -0.1899
18080THY    HP539308   2.044   2.186   2.565 -0.1681 -0.1375  0.2333
18080THY    HP639309   1.863   2.182   2.563  0.1483  0.8162 -1.7765
18080THY    HP739310   1.941   2.228   2.706 -0.8361 -0.2006 -0.1930
18080THY    CA339311   1.711   2.427   2.642  0.3365 -1.1472  0.0518
18080THY    HA339312   1.685   2.326   2.609 -0.7910 -1.8740  0.5611
18080THY    CA439313   1.607   2.519   2.681 -0.8006 -0.0583  0.4964
18080THY    HA439314   1.501   2.494   2.682 -1.6893 -1.7443  3.5885
18080THY    CA539315   1.642   2.644   2.734 -0.2236  0.3222 -0.4697
18080THY    CM139316   1.537   2.733   2.796 -0.2331 -0.3572  0.0149
18080THY    HM139317   1.479   2.784   2.719  2.1401 -2.5171 -0.2954
18080THY    HM239318   1.588   2.806   2.860  1.9684 -0.9111 -0.9528
18080THY    HM339319   1.473   2.676   2.864 -1.4555  0.0953  1.8519
18080THY    CA639320   1.775   2.686   2.732 -0.0931 -0.2335  0.4467
18080THY    HA639321   1.811   2.778   2.776 -1.1105  0.5368  0.4923
18081THY      O39322   6.276   4.421   2.862 -0.1546 -0.4929  0.3884
18081THY     HO39323   6.228   4.375   2.792 -1.0458  0.0696  0.4335
18081THY    CA139324   6.295   4.543   2.820 -0.1078  0.8629 -0.7734
18081THY    CA239325   6.402   4.620   2.860 -0.5043 -0.1203 -0.1958
18081THY    CP139326   6.506   4.558   2.965 -0.0787  0.3206  0.5166
18081THY    HP139327   6.451   4.511   3.048 -1.1076  0.0765  1.2450
18081THY    CP239328   6.590   4.663   3.045 -0.2592 -0.4346 -0.3859
18081THY    HP239329   6.673   4.699   2.982  0.4776 -0.2687 -1.7299
18081THY    HP339330   6.630   4.621   3.137 -1.7190 -0.1714 -1.2537
18081THY    HP439331   6.533   4.753   3.070  0.5064  0.0349 -0.0207
18081THY    CP339332   6.609   4.464   2.893 -0.7232 -0.3380 -0.1648
18081THY    HP539333   6.675   4.415   2.965 -0.4021  0.4942  1.4275
18081THY    HP639334   6.682   4.525   2.838  0.1640  0.7015 -0.2583
18081THY    HP739335   6.576   4.389   2.820  1.4767  0.5015 -2.0704
18081THY    CA339336   6.414   4.753   2.821 -0.2657  0.3577 -0.6642
18081THY    HA339337   6.495   4.814   2.861 -0.7282  0.7421 -0.3021
18081THY    CA439338   6.331   4.796   2.715  0.5018  0.1041 -0.1813
18081THY    HA439339   6.348   4.894   2.671  1.8743 -0.7125 -0.7550
18081THY    CA539340   6.223   4.715   2.667  0.9142 -0.5434 -0.2363
18081THY    CM139341   6.121   4.768   2.567 -0.2526 -0.0566  0.3583
18081THY    HM139342   6.046   4.816   2.631  0.9444  1.7954 -0.1341
18081THY    HM239343   6.081   4.686   2.506  2.3723 -0.0164 -1.0736
18081THY    HM339344   6.165   4.837   2.494  1.2086  0.1439 -0.3217
18081THY    CA639345   6.195   4.592   2.729 -0.6194  0.0144 -0.5942
18081THY    HA639346   6.107   4.532   2.712 -1.3131  1.3386 -0.0130
18082THY      O39347   1.111   3.389   5.828  0.6556 -0.2148  0.1633
18082THY     HO39348   1.120   3.309   5.774  1.1888 -0.8655  0.6550
18082THY    CA139349   1.218   3.457   5.805  0.5450 -0.0105 -0.3150
18082THY    CA239350   1.229   3.587   5.858 -0.4856  0.5187  0.1320
18082THY    CP139351   1.137   3.635   5.974 -0.8636 -0.0708 -0.0713
18082THY    HP139352   1.072   3.556   6.012  0.7666  1.4511 -0.7514
18082THY    CP239353   1.044   3.745   5.911  0.0238 -0.0920  0.7342
18082THY    HP239354   1.092   3.806   5.835 -0.1545 -0.4824  0.3924
18082THY    HP339355   0.990   3.795   5.992 -0.6381  0.7406 -1.1988
18082THY    HP439356   0.971   3.689   5.851  1.4575  0.8452 -2.4179
18082THY    CP339357   1.220   3.687   6.094  0.4195 -0.2289  0.2553
18082THY    HP539358   1.311   3.626   6.104  0.2742 -1.1954 -0.1406
18082THY    HP639359   1.169   3.673   6.190  0.9682  0.2025  1.1105
18082THY    HP739360   1.252   3.791   6.082  1.6350  0.4814 -0.0249
18082THY    CA339361   1.343   3.665   5.813  0.2774 -0.1578  0.2670
18082THY    HA339362   1.367   3.761   5.858 -0.7141  0.8733  0.0482
18082THY    CA439363   1.431   3.616   5.713 -0.1170 -0.5907 -0.2569
18082THY    HA439364   1.519   3.673   5.685 -0.3937  1.1547  1.1237
18082THY    CA539365   1.408   3.497   5.653 -1.1486 -0.6170  0.1919
18082THY    CM139366   1.499   3.430   5.558 -0.4338  0.4024  0.4557
18082THY    HM139367   1.479   3.465   5.456  2.2241  0.4771  2.5035
18082THY    HM239368   1.495   3.321   5.553  0.6501  1.0344  0.3721
18082THY    HM339369   1.602   3.453   5.586  0.2986 -0.9803 -0.9811
18082THY    CA639370   1.305   3.414   5.706 -0.3753  0.0937  0.1129
18082THY    HA639371   1.299   3.310   5.675 -1.7859  0.6309  0.0091
18083THY      O39372   1.240   8.876   5.693 -0.1755  0.6490 -0.0024
18083THY     HO39373   1.218   8.821   5.771 -0.6353 -0.2548 -1.1409
18083THY    CA139374   1.131   8.952   5.681 -0.5291  0.6906  0.4144
18083THY    CA239375   1.133   9.057   5.592 -0.7722  0.0553  0.3530
18083THY    CP139376   1.256   9.076   5.498 -0.7451 -0.0579  0.4856
18083THY    HP139377   1.342   9.018   5.532  0.4835 -1.3808  1.4620
18083THY    CP239378   1.297   9.225   5.490 -0.1760 -0.3466  0.2537
18083THY    HP239379   1.390   9.230   5.432 -0.5670 -0.9979  0.1087
18083THY    HP339380   1.304   9.278   5.586 -0.9022  0.5856 -1.2657
18083THY    HP439381   1.216   9.276   5.437  0.2229 -0.8212  0.4036
18083THY    CP339382   1.223   9.033   5.354 -0.0787 -0.4520  0.1901
18083THY    HP539383   1.310   9.030   5.287  1.5157  1.5422 -0.0438
18083THY    HP639384   1.152   9.107   5.315  1.5704 -1.8839  1.1030
18083THY    HP739385   1.166   8.940   5.366  1.6341  3.9174 -0.5402
18083THY    CA339386   1.011   9.123   5.568  0.1292  0.2535  0.7662
18083THY    HA339387   0.996   9.194   5.487  0.5297  1.7453  2.6218
18083THY    CA439388   0.906   9.101   5.647  0.3235  0.0860  0.7058
18083THY    HA439389   0.811   9.151   5.628  1.4708 -2.0973  2.1820
18083THY    CA539390   0.905   9.007   5.751 -0.4122  0.4331  1.0762
18083THY    CM139391   0.785   8.995   5.846  0.5919  0.1135  0.2992
18083THY    HM139392   0.793   8.903   5.905 -0.8511  0.1670  0.1870
18083THY    HM239393   0.688   8.981   5.796  0.2034  1.0563 -0.4394
18083THY    HM339394   0.788   9.075   5.921  0.3486  1.0767 -0.5846
18083THY    CA639395   1.025   8.931   5.766  0.6030  0.0071  1.3342
18083THY    HA639396   1.029   8.856   5.844 -1.8418 -0.9168  0.1459
18084THY      O39397   3.071   5.784   2.476 -0.3853  0.2027 -0.0956
18084THY     HO39398   3.104   5.872   2.501  0.9070 -0.4665 -0.3483
18084THY    CA139399   3.162   5.703   2.529  0.4827 -0.4047  0.5350
18084THY    CA239400   3.148   5.563   2.512 -0.3127  0.6238 -0.1040
18084THY    CP139401   3.072   5.499   2.397 -0.4465  0.3178  0.0432
18084THY    HP139402   3.041   5.565   2.314 -1.2454  0.7078  0.1647
18084THY    CP239403   2.948   5.434   2.466 -0.7030  0.2465 -0.2636
18084THY    HP239404   2.968   5.372   2.554 -1.3150  1.4258  1.1467
18084THY    HP339405   2.879   5.388   2.394 -4.2628  1.7341  2.2694
18084THY    HP439406   2.881   5.512   2.505  0.9693  1.5060  0.5899
18084THY    CP339407   3.149   5.395   2.313  0.3914  0.0247 -0.8195
18084THY    HP539408   3.188   5.311   2.373 -0.2661  0.5449 -0.7648
18084THY    HP639409   3.238   5.442   2.270  1.5256  1.8247 -1.2059
18084THY    HP739410   3.083   5.366   2.230  0.3267 -0.0701 -0.3969
18084THY    CA339411   3.212   5.475   2.605 -0.1100 -0.6898  1.0590
18084THY    HA339412   3.188   5.369   2.602 -1.9065  0.2837  1.3898
18084THY    CA439413   3.297   5.531   2.706 -0.5273  0.2045 -0.2962
18084THY    HA439414   3.351   5.458   2.766  1.1915 -0.3150  0.4888
18084THY    CA539415   3.311   5.668   2.717  0.0923 -0.0421 -0.6825
18084THY    CM139416   3.397   5.724   2.827  0.5995  0.0414 -0.3077
18084THY    HM139417   3.394   5.656   2.912 -0.0588 -0.5711 -1.0532
18084THY    HM239418   3.359   5.820   2.864 -1.4433 -0.1668 -0.9808
18084THY    HM339419   3.502   5.729   2.796  0.7745  0.6613  0.0268
18084THY    CA639420   3.242   5.750   2.631 -0.2697 -1.3175 -0.3377
18084THY    HA639421   3.252   5.857   2.647 -3.0339  0.1206 -0.2180
18085THY      O39422   9.326   1.907   3.949  0.2232  0.2361 -0.3169
18085THY     HO39423   9.368   1.868   3.870 -0.7274 -0.1808 -0.5348
18085THY    CA139424   9.208   1.947   3.914 -0.6636  0.7721  0.5244
18085THY    CA239425   9.128   2.025   3.997 -0.2180 -0.1501 -0.2271
18085THY    CP139426   9.176   2.057   4.141 -0.0978  0.8854 -0.5107
18085THY    HP139427   9.281   2.026   4.155  0.3532 -1.4102 -0.1805
18085THY    CP239428   9.089   1.984   4.247  0.8972 -0.6239 -0.6088
18085THY    HP239429   9.010   2.047   4.290  0.7995 -0.3326 -0.9226
18085THY    HP339430   9.167   1.966   4.322  1.0687 -0.5001  0.5533
18085THY    HP439431   9.042   1.898   4.198  0.5430 -2.3790  0.5289
18085THY    CP339432   9.168   2.207   4.159  0.0219 -0.9762 -0.5679
18085THY    HP539433   9.221   2.266   4.083  1.4796 -0.8666 -1.6944
18085THY    HP639434   9.222   2.230   4.252 -0.2258 -0.2431 -2.7683
18085THY    HP739435   9.071   2.252   4.186 -0.2991 -1.8796 -0.7147
18085THY    CA339436   9.003   2.067   3.941  1.0191  0.1219 -0.7485
18085THY    HA339437   8.935   2.120   4.008 -0.4618  0.0932 -2.5281
18085THY    CA439438   8.962   2.023   3.813 -0.2650 -0.4263  0.4198
18085THY    HA439439   8.861   2.049   3.783 -1.8987  1.7390 -2.7538
18085THY    CA539440   9.040   1.942   3.735  0.4198 -0.4820  0.0019
18085THY    CM139441   8.983   1.889   3.601 -0.2340 -0.2550  0.5346
18085THY    HM139442   8.929   1.969   3.549 -0.5755  2.4157  2.1680
18085THY    HM239443   8.917   1.804   3.621 -0.4703  1.6873  1.1326
18085THY    HM339444   9.063   1.851   3.536  0.8392  0.5928  1.2745
18085THY    CA639445   9.163   1.901   3.785  0.4600 -0.1224 -0.2560
18085THY    HA639446   9.224   1.837   3.721 -0.3997 -0.3583 -0.8629
18086THY      O39447   8.903   8.480   2.257  0.0716  0.3802  0.1621
18086THY     HO39448   8.995   8.498   2.231  0.8344  2.6114 -0.2620
18086THY    CA139449   8.839   8.594   2.294  0.1270 -0.0684  0.0217
18086THY    CA239450   8.699   8.597   2.298  0.3694  0.0264 -0.2754
18086THY    CP139451   8.614   8.479   2.263  0.0205  0.4649 -0.3357
18086THY    HP139452   8.675   8.397   2.223 -1.1227 -0.6356 -0.6826
18086THY    CP239453   8.530   8.510   2.140  0.6838  0.0843  0.0702
18086THY    HP239454   8.495   8.409   2.114  1.5339  0.0419 -0.2198
18086THY    HP339455   8.591   8.544   2.056  0.3267  0.2325  1.1138
18086THY    HP439456   8.442   8.572   2.162 -0.0250 -0.8624 -0.5806
18086THY    CP339457   8.526   8.429   2.370  0.1774 -1.0056  0.5567
18086THY    HP539458   8.590   8.403   2.454  0.3928 -1.1436  0.6425
18086THY    HP639459   8.461   8.344   2.344  2.4827  2.4306 -2.5539
18086THY    HP739460   8.466   8.515   2.402  0.2842 -1.1886  0.7018
18086THY    CA339461   8.639   8.718   2.346  0.5845  0.5612 -0.0463
18086THY    HA339462   8.531   8.721   2.355  0.7344  2.4091  1.7378
18086THY    CA439463   8.718   8.829   2.380 -0.0671 -0.5381  0.1533
18086THY    HA439464   8.672   8.916   2.425 -0.9650  1.9536 -1.5313
18086THY    CA539465   8.856   8.828   2.363 -0.3116  1.0166 -0.2030
18086THY    CM139466   8.937   8.943   2.406  0.2163  0.3922 -0.1830
18086THY    HM139467   8.929   8.969   2.512 -1.1004 -0.0017  1.1061
18086THY    HM239468   8.916   9.032   2.346 -1.0789  2.1776  0.7464
18086THY    HM339469   9.043   8.920   2.386  0.2676  0.2903  0.1307
18086THY    CA639470   8.919   8.705   2.321 -0.3595  0.5222  0.2684
18086THY    HA639471   9.025   8.685   2.309 -0.7306 -1.4691 -0.7478
18087THY      O39472   1.076   6.939   7.001 -0.5386 -0.2618  0.0971
18087THY     HO39473   1.023   6.906   7.075  1.2575  0.3537 -1.6153
18087THY    CA139474   1.180   6.857   6.990  0.3484  0.1618 -0.1861
18087THY    CA239475   1.301   6.892   6.931  0.3342 -0.1997 -0.5048
18087THY    CP139476   1.316   7.035   6.877 -0.6186 -0.1580 -0.0982
18087THY    HP139477   1.227   7.098   6.886 -0.3869 -1.0308  0.3842
18087THY    CP239478   1.349   7.042   6.730  0.3385  0.4372 -0.0620
18087THY    HP239479   1.451   7.009   6.707  0.9778  0.6011  1.6870
18087THY    HP339480   1.345   7.147   6.697  1.6231  0.0647 -0.1040
18087THY    HP439481   1.268   6.982   6.687  0.0255  2.9118 -1.5374
18087THY    CP339482   1.421   7.113   6.951  0.0608 -0.4809 -0.0206
18087THY    HP539483   1.379   7.132   7.050 -0.0067 -0.4711 -0.2191
18087THY    HP639484   1.452   7.205   6.900  0.2918  3.9370  2.6303
18087THY    HP739485   1.513   7.055   6.969  0.1152  0.0772  0.2329
18087THY    CA339486   1.404   6.796   6.927  0.0798  0.2813  1.0769
18087THY    HA339487   1.503   6.822   6.890  0.7037  1.0043 -0.1960
18087THY    CA439488   1.385   6.661   6.974  0.2207 -0.3337  0.0475
18087THY    HA439489   1.475   6.600   6.976  1.3735 -0.6299  1.6705
18087THY    CA539490   1.258   6.622   7.020 -0.5116 -0.1439 -0.3924
18087THY    CM139491   1.243   6.491   7.079  0.3649  0.0103  0.9725
18087THY    HM139492   1.273   6.414   7.007  0.8173  0.8655  0.3401
18087THY    HM239493   1.136   6.481   7.103  0.6223  0.9219  0.3345
18087THY    HM339494   1.312   6.483   7.163  0.6045 -0.2521  0.3039
18087THY    CA639495   1.160   6.721   7.025  0.4602  0.1182  0.3996
18087THY    HA639496   1.063   6.693   7.066  0.2473  0.6251  1.7962
18088THY      O39497   9.120   3.214   3.866 -0.2535 -0.0181  0.2287
18088THY     HO39498   9.109   3.229   3.961 -0.8471  0.2219 -1.4505
18088THY    CA139499   9.226   3.276   3.818  0.6087 -0.1854  0.3407
18088THY    CA239500   9.272   3.237   3.692  0.0425 -0.0559 -0.3684
18088THY    CP139501   9.224   3.102   3.631 -0.2730 -0.2678 -0.2271
18088THY    HP139502   9.125   3.076   3.672  0.0606  1.0212  0.4924
18088THY    CP239503   9.330   2.992   3.637 -0.1630 -0.2843 -0.1892
18088THY    HP239504   9.373   2.969   3.735  0.8302 -0.5646  0.4085
18088THY    HP339505   9.419   3.014   3.577  1.9093  2.8323  0.6798
18088THY    HP439506   9.278   2.900   3.608 -0.3523 -0.1002 -0.1422
18088THY    CP339507   9.198   3.121   3.480 -0.4954 -0.3430  0.7785
18088THY    HP539508   9.175   3.028   3.427 -2.4763  0.6938  0.6213
18088THY    HP639509   9.286   3.167   3.433 -0.3858 -0.0062  0.9219
18088THY    HP739510   9.110   3.183   3.460  0.5087  0.1055  2.4201
18088THY    CA339511   9.379   3.316   3.634 -0.4588  0.0349  0.5315
18088THY    HA339512   9.424   3.282   3.541 -1.3021 -0.2311  0.0992
18088THY    CA439513   9.427   3.427   3.700 -0.9349 -0.4437 -0.1478
18088THY    HA439514   9.506   3.489   3.658 -2.2409 -2.5536  0.1670
18088THY    CA539515   9.394   3.451   3.834  0.6165  0.6256 -0.1514
18088THY    CM139516   9.453   3.570   3.902 -0.3996  0.4536  0.0201
18088THY    HM139517   9.426   3.557   4.007 -2.9221 -0.0725  0.4422
18088THY    HM239518   9.407   3.663   3.866 -1.7376  1.2195 -0.3193
18088THY    HM339519   9.562   3.562   3.893 -0.5087 -0.7868 -0.2703
18088THY    CA639520   9.292   3.376   3.891  0.0593  0.6246 -0.4925
18088THY    HA639521   9.264   3.391   3.995 -0.8269  0.4082 -0.6191
18089THY      O39522   8.733   2.186   4.997 -0.1327 -0.1587  0.2051
18089THY     HO39523   8.756   2.091   5.003  0.6891 -1.2231  0.3194
18089THY    CA139524   8.755   2.196   4.862  0.4273 -0.6091 -1.0293
18089THY    CA239525   8.719   2.309   4.788  0.1401  0.1858 -0.2366
18089THY    CP139526   8.662   2.427   4.863 -0.0329  0.0989 -0.9956
18089THY    HP139527   8.643   2.411   4.970  0.2813  0.1103 -1.3060
18089THY    CP239528   8.533   2.467   4.800  0.2559  0.3125  0.4792
18089THY    HP239529   8.460   2.385   4.794  2.3731 -0.8393 -1.4350
18089THY    HP339530   8.542   2.491   4.694  0.5390 -0.1234 -1.4554
18089THY    HP439531   8.472   2.541   4.854  0.5394  0.2005  0.7946
18089THY    CP339532   8.752   2.555   4.863 -0.7156 -0.1053 -0.2501
18089THY    HP539533   8.700   2.651   4.869  0.7564  1.5674  0.5054
18089THY    HP639534   8.805   2.564   4.767 -2.3674 -1.1981 -1.5256
18089THY    HP739535   8.822   2.556   4.948 -0.2881 -0.4563  0.0976
18089THY    CA339536   8.746   2.298   4.645  0.0227 -0.4227 -0.1164
18089THY    HA339537   8.740   2.392   4.590 -1.1280  0.1576  0.1767
18089THY    CA439538   8.801   2.179   4.586 -0.0826 -0.1933  0.4254
18089THY    HA439539   8.831   2.182   4.482  0.4611 -0.0148  1.8652
18089THY    CA539540   8.844   2.078   4.666 -0.8965 -0.1390 -0.6816
18089THY    CM139541   8.918   1.963   4.610 -0.4684  0.6447 -0.4463
18089THY    HM139542   9.011   1.993   4.559 -0.2016  1.5001  0.2198
18089THY    HM239543   8.860   1.927   4.524 -1.0552  0.8733 -0.0669
18089THY    HM339544   8.935   1.873   4.669  0.8082 -1.7481 -1.8728
18089THY    CA639545   8.816   2.085   4.807  0.0789  0.3733  0.1090
18089THY    HA639546   8.846   1.995   4.861 -0.3756 -1.3713 -1.1435
18090THY      O39547   4.927   5.404   4.553  0.5783 -0.0594 -0.4669
18090THY     HO39548   4.899   5.312   4.543 -2.9985 -1.9332  0.6513
18090THY    CA139549   5.059   5.406   4.564  0.0498 -0.0595 -0.2780
18090THY    CA239550   5.136   5.526   4.590 -0.2626 -0.8196  0.1332
18090THY    CP139551   5.063   5.653   4.618  0.1929 -0.9216  0.3663
18090THY    HP139552   4.963   5.659   4.572  0.2198 -0.9956  0.2435
18090THY    CP239553   5.130   5.783   4.566 -0.9492  0.3222 -0.3062
18090THY    HP239554   5.235   5.789   4.597 -0.6721 -0.6720  0.1004
18090THY    HP339555   5.090   5.876   4.609 -1.4113  0.2034 -0.4445
18090THY    HP439556   5.119   5.776   4.457 -0.8699  0.3505 -0.9406
18090THY    CP339557   5.042   5.679   4.766  0.7065 -0.0992  0.1169
18090THY    HP539558   5.142   5.677   4.811  0.8163 -0.3363  0.2172
18090THY    HP639559   4.983   5.602   4.816  1.3349  1.6899  0.7529
18090THY    HP739560   4.991   5.774   4.782  1.4028  0.2647  0.4371
18090THY    CA339561   5.274   5.518   4.607 -0.1109 -0.4376  0.4584
18090THY    HA339562   5.333   5.603   4.639 -1.8980 -0.4988  1.7718
18090THY    CA439563   5.336   5.393   4.593 -0.0264  0.5712  0.2700
18090THY    HA439564   5.443   5.387   4.612  0.5650 -1.7374  1.9608
18090THY    CA539565   5.267   5.280   4.566  0.3396  0.4286 -0.1242
18090THY    CM139566   5.346   5.144   4.556  0.3621  0.5243  0.4592
18090THY    HM139567   5.451   5.157   4.528  0.4261 -0.7759 -2.2734
18090THY    HM239568   5.298   5.094   4.471  0.8988  0.6329 -0.2466
18090THY    HM339569   5.330   5.094   4.653  0.1215 -0.2424 -1.0110
18090THY    CA639570   5.129   5.284   4.546  0.5228 -0.2146  0.3146
18090THY    HA639571   5.073   5.195   4.519  0.4729 -2.5397  0.9977
18091THY      O39572   0.248   2.197   6.848  0.1143 -0.1000 -0.3925
18091THY     HO39573   0.216   2.156   6.766  2.2544 -0.7434 -0.8835
18091THY    CA139574   0.220   2.334   6.842  0.1412 -0.8001 -0.1829
18091THY    CA239575   0.222   2.418   6.959  0.1341  0.0099 -0.0430
18091THY    CP139576   0.227   2.362   7.097 -0.4943 -0.9387 -0.5306
18091THY    HP139577   0.229   2.253   7.102  0.6058  0.6652 -0.4729
18091THY    CP239578   0.093   2.400   7.170  0.7749 -0.0680 -0.4177
18091THY    HP239579   0.020   2.348   7.106  2.1807 -1.6249 -0.5797
18091THY    HP339580   0.075   2.508   7.167  0.0295 -0.1611 -0.5330
18091THY    HP439581   0.105   2.361   7.271  3.4093 -0.2984 -0.3568
18091THY    CP339582   0.339   2.424   7.183 -0.1329  0.4162  0.2592
18091THY    HP539583   0.326   2.533   7.194 -1.0879 -1.9362  0.4316
18091THY    HP639584   0.435   2.409   7.133 -1.2052 -1.6050 -0.1996
18091THY    HP739585   0.351   2.382   7.284  0.8808 -0.0959 -0.7453
18091THY    CA339586   0.195   2.553   6.939 -0.1175  0.4829 -0.0278
18091THY    HA339587   0.194   2.626   7.019  1.1726  0.1375  0.3953
18091THY    CA439588   0.186   2.603   6.807 -0.1124 -0.6958  0.2260
18091THY    HA439589   0.189   2.707   6.776 -1.0644 -2.2690 -0.1785
18091THY    CA539590   0.185   2.518   6.698  0.5079  0.2004  0.5865
18091THY    CM139591   0.181   2.579   6.562 -0.1551 -0.5630 -0.0614
18091THY    HM139592   0.198   2.688   6.566  0.2060  0.2180 -0.1405
18091THY    HM239593   0.084   2.558   6.516  0.4262 -0.8014 -2.4182
18091THY    HM339594   0.265   2.549   6.498 -0.5192 -0.5056 -1.2550
18091THY    CA639595   0.208   2.383   6.714 -0.4173  0.6286 -0.1564
18091THY    HA639596   0.222   2.322   6.625 -1.2414  0.2118  0.2487
18092THY      O39597   6.962   1.919   5.418 -0.3618 -0.1459 -0.1882
18092THY     HO39598   7.025   1.927   5.492 -0.6626 -0.0811  2.9318
18092THY    CA139599   7.036   1.940   5.314  0.0834  0.6158 -0.6539
18092THY    CA239600   6.992   1.921   5.184 -0.2003  0.8135 -0.0296
18092THY    CP139601   6.849   1.887   5.161 -0.3631 -0.3677  0.3679
18092THY    HP139602   6.798   1.858   5.254  1.0648  1.0285  2.1231
18092THY    CP239603   6.826   1.762   5.081  0.0610  0.2082 -0.0941
18092THY    HP239604   6.890   1.764   4.992  2.5347  1.8898  0.7112
18092THY    HP339605   6.720   1.751   5.055 -0.1546  0.9551  0.1567
18092THY    HP439606   6.856   1.673   5.138  3.3095 -0.6188  0.3661
18092THY    CP339607   6.781   2.007   5.094 -0.5098 -0.5023 -0.4298
18092THY    HP539608   6.676   1.984   5.070 -1.5062  1.1427  1.9851
18092THY    HP639609   6.826   2.038   4.999 -2.0922 -1.7274 -1.6795
18092THY    HP739610   6.790   2.091   5.164 -0.1689  1.2355 -1.8662
18092THY    CA339611   7.082   1.939   5.074 -0.1861 -0.0171 -0.1953
18092THY    HA339612   7.049   1.913   4.974 -0.4307 -0.0398  0.1892
18092THY    CA439613   7.211   1.984   5.096 -0.2936 -0.9675 -0.2083
18092THY    HA439614   7.286   1.991   5.018  0.4828 -0.4176 -1.9203
18092THY    CA539615   7.251   2.009   5.229  0.3547  0.6547  0.0326
18092THY    CM139616   7.393   2.041   5.266  0.1081 -0.3284  0.2363
18092THY    HM139617   7.465   2.000   5.194  0.7566  0.4627 -0.0586
18092THY    HM239618   7.424   1.995   5.361  3.3481 -0.8119  1.2026
18092THY    HM339619   7.410   2.149   5.272 -1.1548 -0.0549  0.4387
18092THY    CA639620   7.162   1.986   5.329 -0.7391 -0.3546  0.3675
18092THY    HA639621   7.196   2.008   5.430  0.9710 -1.1721  1.6758
18093THY      O39622   7.005   6.660   6.665  0.7015 -0.3543 -0.0697
18093THY     HO39623   6.959   6.682   6.748  2.3581  0.7240 -0.4767
18093THY    CA139624   7.050   6.533   6.677 -0.5650  0.8243 -0.7993
18093THY    CA239625   7.115   6.477   6.567 -0.5441  0.2466  0.1302
18093THY    CP139626   7.132   6.557   6.434  0.2437  0.0327  0.8890
18093THY    HP139627   7.096   6.660   6.447 -2.2441  1.6199 -0.0802
18093THY    CP239628   7.043   6.493   6.320 -0.4818 -0.4545  0.2429
18093THY    HP239629   7.058   6.385   6.312 -1.2598 -0.3435  0.1216
18093THY    HP339630   7.045   6.542   6.222 -0.8051 -0.6907 -0.2068
18093THY    HP439631   6.941   6.499   6.361  0.7303  2.6384  2.1243
18093THY    CP339632   7.282   6.539   6.383  0.8909  0.1855 -0.2099
18093THY    HP539633   7.355   6.576   6.455  1.1740  1.5292 -3.0837
18093THY    HP639634   7.285   6.591   6.287 -0.8607  0.5404  0.5912
18093THY    HP739635   7.310   6.434   6.369  0.2594 -0.8167 -0.2576
18093THY    CA339636   7.143   6.343   6.579  0.5463  0.6609  0.5817
18093THY    HA339637   7.185   6.291   6.493 -1.8495 -0.6013  0.5912
18093THY    CA439638   7.130   6.272   6.696  0.3631  0.3461  0.1783
18093THY    HA439639   7.169   6.171   6.707  2.0617  0.0182  0.7824
18093THY    CA539640   7.064   6.332   6.807  0.2609 -0.3959  0.5546
18093THY    CM139641   7.052   6.256   6.940  0.1076 -0.1453 -0.2337
18093THY    HM139642   6.958   6.289   6.987  1.1154  3.2128 -1.6705
18093THY    HM239643   7.127   6.287   7.013 -1.7503  2.2595 -1.0505
18093THY    HM339644   7.039   6.147   6.943  0.9151  2.7320 -0.3484
18093THY    CA639645   7.036   6.469   6.797 -0.5742 -0.4390  0.0859
18093THY    HA639646   7.004   6.530   6.881  1.2414  0.9653 -0.8356
18094THY      O39647   7.241   4.087   2.011  0.2619 -0.1382  0.2503
18094THY     HO39648   7.218   4.057   1.921  0.8493 -0.4050  0.5921
18094THY    CA139649   7.266   4.217   2.002 -0.0851 -0.4726 -0.5148
18094THY    CA239650   7.299   4.293   2.120  0.4222 -0.4346 -0.3535
18094THY    CP139651   7.285   4.230   2.259 -0.5004 -0.6226  0.4110
18094THY    HP139652   7.266   4.122   2.254  1.2755  0.3474  0.0151
18094THY    CP239653   7.163   4.275   2.335  0.1563  0.1915  0.8288
18094THY    HP239654   7.181   4.379   2.367 -1.3851 -1.8847  1.8294
18094THY    HP339655   7.141   4.208   2.419 -0.7573 -0.5800  0.1473
18094THY    HP439656   7.074   4.282   2.271  0.8648 -0.8096  0.9026
18094THY    CP339657   7.416   4.248   2.348 -0.4263  0.1473 -0.3467
18094THY    HP539658   7.406   4.191   2.441 -0.5972  1.1083  1.2066
18094THY    HP639659   7.435   4.352   2.376 -0.8093  1.6420 -0.6640
18094THY    HP739660   7.509   4.207   2.305 -0.2077  0.5548 -0.2822
18094THY    CA339661   7.343   4.428   2.101 -0.3641  0.3639  0.2794
18094THY    HA339662   7.364   4.494   2.185  1.4634 -0.2993  0.6272
18094THY    CA439663   7.330   4.482   1.974 -0.0434  0.8712  0.5775
18094THY    HA439664   7.343   4.589   1.956 -4.0369  0.1131  1.1213
18094THY    CA539665   7.294   4.407   1.866  0.5644  0.1519  1.1253
18094THY    CM139666   7.283   4.473   1.730  0.0885  0.1374  0.2889
18094THY    HM139667   7.375   4.528   1.709 -0.0745 -1.5712 -0.0212
18094THY    HM239668   7.203   4.546   1.717  1.2015  2.3711  2.0106
18094THY    HM339669   7.285   4.393   1.655  0.2939 -0.5591  0.9345
18094THY    CA639670   7.261   4.270   1.875 -0.1376 -0.1774  0.3986
18094THY    HA639671   7.239   4.208   1.789 -1.0539  1.5923 -1.8781
18095THY      O39672   2.642   0.512   4.514 -0.1219  0.2034 -0.4045
18095THY     HO39673   2.604   0.469   4.436  0.4125  0.0267 -0.5707
18095THY    CA139674   2.551   0.612   4.542 -0.7915 -0.2779  0.3380
18095THY    CA239675   2.564   0.694   4.652 -0.7866 -0.1754  0.5726
18095THY    CP139676   2.685   0.676   4.748 -0.1263  0.0268 -0.3460
18095THY    HP139677   2.732   0.580   4.725  0.4869 -0.3710  0.0428
18095THY    CP239678   2.646   0.673   4.898  0.0184  0.1501  0.0312
18095THY    HP239679   2.613   0.774   4.928 -0.3777  0.2230 -0.1167
18095THY    HP339680   2.719   0.637   4.971 -0.4432 -0.1734 -1.6154
18095THY    HP439681   2.566   0.598   4.909 -0.7839 -1.9477  0.5131
18095THY    CP339682   2.798   0.778   4.716 -0.0121 -0.2041 -0.0095
18095THY    HP539683   2.758   0.874   4.752 -1.9192 -2.3293  0.0866
18095THY    HP639684   2.815   0.802   4.610  2.8487 -0.1312 -1.3589
18095THY    HP739685   2.891   0.749   4.765 -0.6961  0.0588 -1.8994
18095THY    CA339686   2.473   0.807   4.675 -0.3591 -0.3053 -0.2194
18095THY    HA339687   2.501   0.890   4.739 -0.6598  0.2699 -0.5609
18095THY    CA439688   2.357   0.811   4.598  0.5548  0.5289  0.4074
18095THY    HA439689   2.276   0.883   4.608 -0.9476  1.7149 -1.3592
18095THY    CA539690   2.343   0.725   4.485 -0.4128  0.0998  0.4785
18095THY    CM139691   2.219   0.734   4.387 -0.0841  0.5025  0.5986
18095THY    HM139692   2.237   0.683   4.292  0.2812 -2.0358  4.9591
18095THY    HM239693   2.186   0.835   4.360 -1.3567  1.3218  0.4296
18095THY    HM339694   2.134   0.690   4.440  0.7263 -0.2761 -2.1088
18095THY    CA639695   2.444   0.630   4.453  0.0030 -0.4490 -0.3393
18095THY    HA639696   2.422   0.549   4.384  1.7347 -1.4818  0.0221
18096THY      O39697   4.152   4.121   7.293  0.0415  0.1509  0.1401
18096THY     HO39698   4.130   4.145   7.201 -3.3670  1.1013  1.1681
18096THY    CA139699   4.070   4.216   7.359 -0.3169  0.5572 -0.0653
18096THY    CA239700   3.978   4.172   7.454  0.8523  0.3730 -0.5993
18096THY    CP139701   3.951   4.030   7.490  0.0796 -0.8611  0.5173
18096THY    HP139702   4.003   3.955   7.429  1.1598  1.7226 -0.9625
18096THY    CP239703   3.804   3.995   7.487 -0.0403 -0.4046 -0.3841
18096THY    HP239704   3.758   4.043   7.399  0.0443  0.9425  2.3780
18096THY    HP339705   3.750   4.043   7.569  0.2691 -1.5261  2.0569
18096THY    HP439706   3.788   3.887   7.496 -0.0144  0.7176 -0.3047
18096THY    CP339707   3.999   4.014   7.632 -0.1067 -0.0181  0.4908
18096THY    HP539708   4.097   4.064   7.633 -0.0657 -0.9770  0.4498
18096THY    HP639709   4.006   3.909   7.661  0.0422  2.0690  1.0434
18096THY    HP739710   3.930   4.051   7.708 -0.1652  0.6247 -0.8797
18096THY    CA339711   3.916   4.268   7.533 -0.1845 -0.5577 -0.2160
18096THY    HA339712   3.869   4.241   7.627 -0.8691 -1.3796 -2.0336
18096THY    CA439713   3.924   4.403   7.499 -0.1320  0.3299  0.1484
18096THY    HA439714   3.864   4.476   7.554  1.0007  1.7073  0.0832
18096THY    CA539715   4.000   4.441   7.387  0.5990 -0.8419 -0.1418
18096THY    CM139716   4.013   4.586   7.362 -0.4092 -0.0348 -0.2344
18096THY    HM139717   4.017   4.612   7.255  2.1957  0.2637  0.9782
18096THY    HM239718   4.097   4.637   7.412  1.4267 -0.5459 -2.5733
18096THY    HM339719   3.927   4.651   7.380 -0.8143 -3.3360  0.3481
18096THY    CA639720   4.081   4.348   7.321  0.8997 -0.2001  0.1239
18096THY    HA639721   4.135   4.389   7.236 -1.9601 -0.3240  4.2970
18097THY      O39722   5.506   9.148   1.987  0.4503 -0.1219 -0.1320
18097THY     HO39723   5.470   9.229   2.026  0.1943 -1.0221  0.2040
18097THY    CA139724   5.614   9.186   1.914  0.1898 -0.2938  0.1603
18097THY    CA239725   5.726   9.106   1.893  0.8093 -1.0157 -0.6240
18097THY    CP139726   5.730   8.965   1.947 -0.0002  0.2125  0.7477
18097THY    HP139727   5.630   8.937   1.981 -0.5074 -1.4474  0.4782
18097THY    CP239728   5.831   8.946   2.062 -0.2442 -0.1620 -0.5109
18097THY    HP239729   5.805   8.877   2.143  1.3937 -0.3900 -1.4565
18097THY    HP339730   5.864   9.041   2.107 -2.9306  1.2892 -0.1689
18097THY    HP439731   5.922   8.903   2.020  1.6788 -0.3222  3.2749
18097THY    CP339732   5.747   8.863   1.832  0.3794  0.0182  0.8312
18097THY    HP539733   5.677   8.886   1.751  1.3226 -0.9013  0.5517
18097THY    HP639734   5.725   8.761   1.866  0.1634  0.9285  1.1654
18097THY    HP739735   5.849   8.858   1.794  0.2085 -0.2728 -1.5539
18097THY    CA339736   5.836   9.164   1.816 -0.5472 -0.4642  0.1445
18097THY    HA339737   5.930   9.110   1.807 -0.7302 -1.4976 -0.0118
18097THY    CA439738   5.830   9.295   1.777 -0.2701  0.1427  0.0035
18097THY    HA439739   5.911   9.338   1.720 -0.0336  0.4789  0.0015
18097THY    CA539740   5.714   9.369   1.796 -0.8727 -0.0993  0.4771
18097THY    CM139741   5.703   9.502   1.728  0.0220  0.4139 -0.2512
18097THY    HM139742   5.768   9.505   1.640 -0.5502 -0.1327 -2.0817
18097THY    HM239743   5.729   9.586   1.793 -0.1229 -0.8430  0.7966
18097THY    HM339744   5.606   9.517   1.679  0.5990 -0.5941  0.2725
18097THY    CA639745   5.608   9.311   1.862  0.1006 -0.0835 -0.4851
18097THY    HA639746   5.512   9.363   1.871  0.3237 -1.0210  0.1199
18098THY      O39747   3.819   6.791   7.348  0.0172  0.4739  0.2962
18098THY     HO39748   3.796   6.877   7.385 -0.9920  2.3636 -0.7127
18098THY    CA139749   3.933   6.773   7.419  0.2551 -0.3261  0.3824
18098THY    CA239750   4.033   6.681   7.368 -0.5060 -0.6469 -0.2350
18098THY    CP139751   4.017   6.630   7.224 -0.2486 -0.1537 -0.1018
18098THY    HP139752   3.914   6.637   7.189  0.1051 -0.9907  1.1758
18098THY    CP239753   4.062   6.481   7.224 -0.3592  0.2116 -0.5101
18098THY    HP239754   4.170   6.467   7.218 -0.4079 -0.5783 -0.6206
18098THY    HP339755   4.021   6.436   7.133  1.2390 -0.5386 -0.5101
18098THY    HP439756   4.020   6.432   7.312  0.0154  0.2959 -0.6741
18098THY    CP339757   4.107   6.719   7.131  0.3731 -0.6571 -0.2396
18098THY    HP539758   4.202   6.748   7.177 -0.5061  0.9619  0.2098
18098THY    HP639759   4.056   6.812   7.104 -0.5904  0.0710 -0.5422
18098THY    HP739760   4.130   6.670   7.036  1.4403  0.4466 -2.0275
18098THY    CA339761   4.154   6.664   7.440 -0.4254  1.3195  0.2019
18098THY    HA339762   4.230   6.604   7.391 -1.1895 -2.2906  1.9031
18098THY    CA439763   4.167   6.724   7.557  0.3689  0.1650 -0.8881
18098THY    HA439764   4.257   6.700   7.613  1.3288 -0.3695  1.1988
18098THY    CA539765   4.068   6.810   7.615 -0.3161  0.0344 -0.0947
18098THY    CM139766   4.100   6.862   7.751 -0.5446  1.2006  0.0843
18098THY    HM139767   4.078   6.969   7.754  2.1140 -1.1915  0.8321
18098THY    HM239768   4.206   6.845   7.773  0.0591 -1.6033 -0.3239
18098THY    HM339769   4.045   6.818   7.835 -1.3574  0.3663 -0.5245
18098THY    CA639770   3.956   6.836   7.539  0.1576  0.3215 -0.7296
18098THY    HA639771   3.875   6.898   7.577 -0.0097  0.3137 -0.9426
18099THY      O39772   1.832   6.569   2.606  0.5803 -0.1473 -0.1269
18099THY     HO39773   1.923   6.536   2.594  0.8189  0.0070  0.4483
18099THY    CA139774   1.775   6.473   2.678 -0.0438  1.1263 -0.7482
18099THY    CA239775   1.677   6.506   2.770  1.2479  0.1191  0.7796
18099THY    CP139776   1.624   6.649   2.790  0.7944 -0.3278 -0.3718
18099THY    HP139777   1.657   6.709   2.704  1.1362 -0.7386 -1.1478
18099THY    CP239778   1.678   6.695   2.922 -0.0677  0.5985  0.1136
18099THY    HP239779   1.787   6.699   2.929 -0.1226  1.4709  0.5095
18099THY    HP339780   1.634   6.638   3.005 -0.3276  0.5093  0.1810
18099THY    HP439781   1.633   6.795   2.934  0.1141 -0.7091  0.3654
18099THY    CP339782   1.469   6.659   2.784 -0.1433  0.1214 -0.2966
18099THY    HP539783   1.423   6.614   2.874 -2.4013  0.4328  2.3589
18099THY    HP639784   1.435   6.610   2.692  0.4250  0.0677 -0.6019
18099THY    HP739785   1.442   6.765   2.795  1.9978 -0.6973  0.3676
18099THY    CA339786   1.614   6.400   2.845 -0.2129 -0.1528 -0.5572
18099THY    HA339787   1.538   6.425   2.919  0.0086 -0.3184  0.6861
18099THY    CA439788   1.657   6.269   2.829 -0.1574  0.3791  0.2146
18099THY    HA439789   1.609   6.190   2.886  1.0929 -1.1418 -1.7212
18099THY    CA539790   1.775   6.247   2.748  0.0090  0.1546 -0.0856
18099THY    CM139791   1.812   6.103   2.734  0.6565  0.6269 -0.1845
18099THY    HM139792   1.896   6.089   2.665 -0.8455 -1.0663 -1.1285
18099THY    HM239793   1.727   6.040   2.707  1.6010 -2.5592 -0.2397
18099THY    HM339794   1.836   6.061   2.832 -0.4405  1.6577  1.4665
18099THY    CA639795   1.826   6.343   2.662 -0.3616  0.5930 -1.1748
18099THY    HA639796   1.907   6.330   2.591  0.3686  1.3123 -0.5764
18100THY      O39797   7.450   2.764   4.131 -0.1140 -0.1139  0.3808
18100THY     HO39798   7.470   2.698   4.062 -0.0224  1.0358 -0.8307
18100THY    CA139799   7.522   2.872   4.099 -0.1770 -0.3478 -0.5752
18100THY    CA239800   7.548   2.974   4.191 -0.4963 -0.7626 -0.4930
18100THY    CP139801   7.499   2.976   4.337 -0.8350 -0.3899 -0.3123
18100THY    HP139802   7.425   2.898   4.358 -0.3591 -2.2145 -1.3089
18100THY    CP239803   7.414   3.104   4.358 -0.5659 -0.0378 -0.4058
18100THY    HP239804   7.455   3.193   4.310 -1.0789 -2.7508 -1.5490
18100THY    HP339805   7.409   3.126   4.465 -0.8788 -0.1794  0.2117
18100THY    HP439806   7.320   3.085   4.305 -0.5501 -0.1354 -0.2059
18100THY    CP339807   7.607   2.967   4.442 -0.2851  0.2140 -0.9772
18100THY    HP539808   7.661   3.062   4.429 -1.8023 -1.6830 -0.3059
18100THY    HP639809   7.673   2.881   4.428  1.1426 -0.6663  0.2035
18100THY    HP739810   7.569   2.969   4.545  1.1937  0.8815  3.1882
18100THY    CA339811   7.636   3.077   4.148 -0.2940  0.4357 -0.1261
18100THY    HA339812   7.657   3.163   4.211 -2.6319  0.3592  0.5593
18100THY    CA439813   7.688   3.077   4.019  0.0202  0.1091 -0.3058
18100THY    HA439814   7.768   3.147   3.996 -0.4965  0.7340  0.4994
18100THY    CA539815   7.658   2.976   3.929  0.3524 -0.1818 -0.5520
18100THY    CM139816   7.711   2.977   3.786  0.8011 -0.2624 -0.2110
18100THY    HM139817   7.820   2.971   3.781  1.0380  1.1214  1.9325
18100THY    HM239818   7.691   3.072   3.734  5.3989  2.0258  2.3078
18100THY    HM339819   7.666   2.900   3.722 -1.2885 -2.9039  2.9258
18100THY    CA639820   7.576   2.872   3.963  0.8162  0.5289  0.0894
18100THY    HA639821   7.544   2.798   3.890 -1.4761  0.0956  1.4021
18101THY      O39822   1.127   5.435   7.258 -0.4449 -0.1445 -0.4406
18101THY     HO39823   1.093   5.525   7.269 -0.9474 -2.2772 -0.3134
18101THY    CA139824   1.025   5.350   7.259 -0.1406 -0.7688  0.4473
18101THY    CA239825   1.027   5.232   7.187  0.3324 -0.1601  0.8896
18101THY    CP139826   1.138   5.205   7.089  0.2565  0.3606  0.3414
18101THY    HP139827   1.205   5.290   7.074 -0.7943 -0.3863  1.0643
18101THY    CP239828   1.090   5.187   6.951 -0.3677  0.5646 -0.1859
18101THY    HP239829   1.174   5.147   6.893 -0.2360 -0.7490  1.8537
18101THY    HP339830   1.061   5.283   6.906 -1.9274  1.9987  0.0639
18101THY    HP439831   1.008   5.114   6.939 -0.1590 -0.1613 -0.3115
18101THY    CP339832   1.223   5.097   7.143  0.2151 -0.2984 -0.3038
18101THY    HP539833   1.161   5.007   7.152  0.9723 -1.2687 -0.9443
18101THY    HP639834   1.256   5.120   7.245  2.0079 -0.8326 -0.3130
18101THY    HP739835   1.310   5.084   7.078  1.6077  0.5895  3.3757
18101THY    CA339836   0.915   5.146   7.203 -0.6860  0.0953 -0.1774
18101THY    HA339837   0.911   5.057   7.141 -1.1204  0.0994 -0.1633
18101THY    CA439838   0.816   5.168   7.292  0.4857 -0.2979 -0.6538
18101THY    HA439839   0.736   5.098   7.312  0.6615  2.7850 -0.0862
18101THY    CA539840   0.817   5.282   7.369  0.8556  0.3932 -0.0296
18101THY    CM139841   0.719   5.308   7.470 -0.0840  0.2845 -0.5426
18101THY    HM139842   0.739   5.262   7.567  3.5028 -0.1958 -0.2413
18101THY    HM239843   0.622   5.261   7.450 -0.8686 -0.1841  1.1888
18101THY    HM339844   0.696   5.415   7.470 -0.0322  1.9833 -0.5154
18101THY    CA639845   0.918   5.376   7.347  0.4507  0.0454  0.0848
18101THY    HA639846   0.912   5.456   7.420 -1.4858  2.0716 -1.7533
18102THY      O39847   4.507   8.647   3.363 -0.8098 -0.1567  0.1411
18102THY     HO39848   4.561   8.614   3.289 -1.3431  0.5349 -2.5054
18102THY    CA139849   4.460   8.537   3.428  0.2037 -0.3410 -0.5002
18102THY    CA239850   4.337   8.539   3.500 -0.2893 -0.5312 -0.2548
18102THY    CP139851   4.258   8.669   3.521 -0.3770 -0.6465  0.3769
18102THY    HP139852   4.253   8.728   3.428 -0.1114 -0.9243 -0.0349
18102THY    CP239853   4.325   8.752   3.623  0.4288  0.5330 -0.2079
18102THY    HP239854   4.261   8.836   3.653  0.0798 -1.3630  0.2491
18102THY    HP339855   4.412   8.795   3.573  2.7031  2.3276 -2.4226
18102THY    HP439856   4.349   8.685   3.706 -2.3635 -0.1697 -2.2775
18102THY    CP339857   4.110   8.649   3.562 -0.5836  0.4261  0.8487
18102THY    HP539858   4.098   8.600   3.660 -1.3888  1.3189  2.7218
18102THY    HP639859   4.069   8.581   3.487  0.5771 -0.1880  0.7924
18102THY    HP739860   4.063   8.748   3.570  0.4917  1.1435  1.3292
18102THY    CA339861   4.292   8.420   3.567  0.3851 -0.4300 -0.2726
18102THY    HA339862   4.203   8.417   3.630  0.5888 -0.0952  0.3399
18102THY    CA439863   4.367   8.310   3.565  0.2962  1.0199 -0.0222
18102THY    HA439864   4.345   8.216   3.614  0.3046 -1.8843 -1.6601
18102THY    CA539865   4.480   8.307   3.480 -0.5267  0.4021 -0.3956
18102THY    CM139866   4.558   8.189   3.457 -0.2051  0.4573 -0.3480
18102THY    HM139867   4.513   8.124   3.381 -3.5142  0.5350  1.6144
18102THY    HM239868   4.556   8.121   3.543  0.6868 -1.8727 -3.5755
18102THY    HM339869   4.662   8.210   3.429 -0.1775  1.0603  0.3514
18102THY    CA639870   4.528   8.419   3.414  0.0046 -0.2183 -0.8151
18102THY    HA639871   4.618   8.412   3.353  0.7876  0.9351 -1.0693
18103THY      O39872   0.824   8.133   1.884 -0.0944 -0.2926 -0.0461
18103THY     HO39873   0.910   8.170   1.857  0.1941 -0.1990 -0.6386
18103THY    CA139874   0.847   8.012   1.943 -0.8265 -0.2780  0.4664
18103THY    CA239875   0.744   7.919   1.927  0.1731 -0.4332  0.5485
18103THY    CP139876   0.628   7.945   1.830  0.1641  0.3594  0.2758
18103THY    HP139877   0.661   8.006   1.745 -0.2632 -1.1754 -1.5527
18103THY    CP239878   0.522   8.012   1.919  0.2403 -0.1029  0.2396
18103THY    HP239879   0.432   8.051   1.870  0.9712  0.9094  3.5196
18103THY    HP339880   0.570   8.097   1.968  2.1423 -0.3661 -0.6258
18103THY    HP439881   0.481   7.956   2.004 -0.8086  1.3909  3.0816
18103THY    CP339882   0.563   7.827   1.763 -0.4068  0.1816 -0.2126
18103THY    HP539883   0.500   7.872   1.685 -0.4217  1.9477  3.1880
18103THY    HP639884   0.495   7.768   1.826  0.5970 -0.4611 -2.1525
18103THY    HP739885   0.634   7.758   1.716 -1.0477  0.1102 -0.8374
18103THY    CA339886   0.751   7.804   2.009  0.0294 -0.6253  0.1551
18103THY    HA339887   0.672   7.730   1.998  0.1175  2.2185 -0.4582
18103THY    CA439888   0.865   7.787   2.101 -0.3395  0.9827  0.4169
18103THY    HA439889   0.862   7.699   2.165 -1.4457  0.4940  0.0842
18103THY    CA539890   0.974   7.877   2.100  0.2996 -0.6245  0.3149
18103THY    CM139891   1.092   7.863   2.182 -0.8767 -0.1032 -0.3579
18103THY    HM139892   1.111   7.935   2.263  0.9753  0.2454 -1.1734
18103THY    HM239893   1.181   7.868   2.117 -0.6078 -0.0728 -3.1965
18103THY    HM339894   1.093   7.764   2.227 -0.7312 -1.2754 -0.9090
18103THY    CA639895   0.963   7.991   2.017  0.7649  0.2849  0.0710
18103THY    HA639896   1.044   8.063   2.016  0.5565  1.5522  0.3470
18104THY      O39897   6.654   5.742   3.442 -0.0448  0.4271  0.6166
18104THY     HO39898   6.606   5.732   3.526 -1.0574 -0.3287 -1.5518
18104THY    CA139899   6.582   5.676   3.351 -0.2094  0.4264 -0.0959
18104THY    CA239900   6.631   5.618   3.235 -0.5597  0.2890 -0.2151
18104THY    CP139901   6.785   5.614   3.208  0.6678  0.7472  0.0596
18104THY    HP139902   6.836   5.689   3.268  1.3527 -1.0972  1.1375
18104THY    CP239903   6.817   5.648   3.064  0.3600 -0.7123 -0.4798
18104THY    HP239904   6.745   5.719   3.023 -0.4091 -0.8576 -1.3248
18104THY    HP339905   6.824   5.562   2.997  2.6206  0.4003 -1.2550
18104THY    HP439906   6.917   5.693   3.057  2.2291  2.0428 -3.6890
18104THY    CP339907   6.838   5.475   3.246 -0.1201 -0.3115 -0.4548
18104THY    HP539908   6.772   5.397   3.206 -0.5808 -0.9166  0.2265
18104THY    HP639909   6.847   5.473   3.355 -0.0774 -0.2624  1.2513
18104THY    HP739910   6.937   5.449   3.207  0.4512  1.8525 -1.8018
18104THY    CA339911   6.539   5.560   3.143  0.3737 -0.0318 -0.3447
18104THY    HA339912   6.573   5.519   3.048 -1.9455 -0.5115 -1.3290
18104THY    CA439913   6.398   5.571   3.163 -0.7933  0.5688  1.0077
18104THY    HA439914   6.327   5.533   3.091  0.3066 -0.0827  0.1118
18104THY    CA539915   6.357   5.619   3.286 -0.9405 -0.1206 -0.3338
18104THY    CM139916   6.214   5.613   3.332  0.6751  0.1469 -0.6332
18104THY    HM139917   6.137   5.667   3.276  2.1193  0.3068  1.7400
18104THY    HM239918   6.195   5.659   3.430 -1.6974 -1.0011  1.0056
18104THY    HM339919   6.174   5.511   3.329 -0.1020  0.1981 -0.3321
18104THY    CA639920   6.451   5.676   3.377 -0.3262 -0.1182 -0.1190
18104THY    HA639921   6.421   5.737   3.462  1.0926  0.3829 -0.0717
18105THY      O39922   6.239   6.973   3.305  0.0236 -0.2888 -0.2479
18105THY     HO39923   6.206   6.883   3.289  0.8664  0.4828 -0.7141
18105THY    CA139924   6.360   6.947   3.352 -0.5350  0.3902  0.0624
18105THY    CA239925   6.463   7.039   3.351 -0.5835  0.4087  0.0522
18105THY    CP139926   6.461   7.148   3.250  0.7815 -0.3828 -0.1381
18105THY    HP139927   6.366   7.159   3.196  2.3496 -3.1380  1.0626
18105THY    CP239928   6.558   7.114   3.142 -0.2908 -0.4034 -0.0482
18105THY    HP239929   6.662   7.096   3.173 -0.6913  0.6011 -0.6864
18105THY    HP339930   6.558   7.190   3.063 -1.7107  0.0644  0.4660
18105THY    HP439931   6.514   7.024   3.097 -0.6060  1.1876 -0.7245
18105THY    CP339932   6.477   7.286   3.314  0.3979  0.0712  0.1252
18105THY    HP539933   6.579   7.300   3.349 -0.0483  0.9186  1.4419
18105THY    HP639934   6.407   7.292   3.399  0.0453 -0.0682 -1.3643
18105THY    HP739935   6.449   7.364   3.242 -0.5513  0.0272 -0.2390
18105THY    CA339936   6.582   7.002   3.419  0.6438  0.1636 -0.0570
18105THY    HA339937   6.671   7.064   3.409  0.3532 -0.1664  0.3114
18105THY    CA439938   6.596   6.882   3.485  0.2898 -0.4382 -0.1658
18105THY    HA439939   6.690   6.860   3.534  0.3536 -1.1337 -1.6016
18105THY    CA539940   6.498   6.786   3.482  0.1384 -0.2950 -0.0159
18105THY    CM139941   6.516   6.657   3.555 -0.6343 -0.3740 -0.6038
18105THY    HM139942   6.522   6.688   3.660 -0.8975 -1.1156  2.2445
18105THY    HM239943   6.610   6.612   3.522 -0.2073  1.8827 -1.5429
18105THY    HM339944   6.435   6.583   3.546 -1.0988 -0.2877 -0.1165
18105THY    CA639945   6.375   6.821   3.418 -0.2122  0.2412  0.7778
18105THY    HA639946   6.297   6.746   3.412  1.4370 -0.5055 -0.9622
18106THY      O39947   5.446   6.922   7.501  0.0151  0.3246 -0.2698
18106THY     HO39948   5.414   7.012   7.519 -0.4110 -0.8009 -0.1801
18106THY    CA139949   5.371   6.839   7.582  0.4011  0.0016  0.1235
18106THY    CA239950   5.365   6.699   7.554 -0.2701  0.3614 -0.4494
18106THY    CP139951   5.430   6.643   7.427 -0.0104  0.2500 -0.0950
18106THY    HP139952   5.523   6.700   7.414 -0.2214  2.5210  0.8656
18106THY    CP239953   5.341   6.674   7.298  0.6919  0.9978  0.2610
18106THY    HP239954   5.389   6.664   7.200  2.4658  1.8419  0.2535
18106THY    HP339955   5.318   6.781   7.303  2.1759  0.8512  0.6048
18106THY    HP439956   5.250   6.612   7.300  1.6164  1.0384 -1.1321
18106THY    CP339957   5.467   6.498   7.429 -0.1194  0.1185  0.4726
18106THY    HP539958   5.543   6.479   7.505  0.9393 -0.9884  0.1792
18106THY    HP639959   5.513   6.466   7.335 -1.9462 -0.5514 -0.3590
18106THY    HP739960   5.377   6.435   7.443 -0.5036 -1.3046  0.6675
18106THY    CA339961   5.292   6.615   7.641 -0.6408  0.1452 -0.0334
18106THY    HA339962   5.293   6.506   7.639  0.6477  2.1857 -0.0998
18106THY    CA439963   5.222   6.672   7.747  0.4355  0.6532 -0.0120
18106THY    HA439964   5.168   6.605   7.813  0.5208 -0.7029 -1.4705
18106THY    CA539965   5.220   6.810   7.771  0.0715  0.0533 -0.3044
18106THY    CM139966   5.147   6.866   7.896 -0.1969  0.4879 -0.3110
18106THY    HM139967   5.199   6.825   7.984 -1.3910  1.5955  0.4727
18106THY    HM239968   5.050   6.815   7.902 -0.7575  0.2999  0.6995
18106THY    HM339969   5.134   6.974   7.904  0.1631  2.3420 -0.3683
18106THY    CA639970   5.294   6.893   7.682 -0.0074  0.0791  0.5761
18106THY    HA639971   5.279   7.000   7.700 -0.8441  0.7440  0.3600
18107THY      O39972   3.785   3.399   3.145  0.7950  0.2754 -0.1808
18107THY     HO39973   3.835   3.336   3.090 -1.0039 -1.2881 -0.3138
18107THY    CA139974   3.785   3.499   3.058  0.5610  0.2369 -0.1041
18107THY    CA239975   3.674   3.590   3.041  1.0282 -0.3769  0.2906
18107THY    CP139976   3.558   3.566   3.129  0.5672  0.7106  0.2456
18107THY    HP139977   3.598   3.534   3.226  1.9735  0.6724  1.7774
18107THY    CP239978   3.465   3.457   3.082  0.8116  0.2469  0.1568
18107THY    HP239979   3.378   3.439   3.147  0.5952 -0.5339 -1.8584
18107THY    HP339980   3.514   3.360   3.067 -0.5185  0.3634 -0.5614
18107THY    HP439981   3.421   3.487   2.987  1.2330  0.6084  2.0349
18107THY    CP339982   3.482   3.694   3.163  0.0879  0.2663 -0.1068
18107THY    HP539983   3.436   3.662   3.257  0.7253 -0.3641 -3.2421
18107THY    HP639984   3.406   3.726   3.090 -0.1780  0.0064 -1.2965
18107THY    HP739985   3.560   3.769   3.181  0.1420 -1.7723  0.3870
18107THY    CA339986   3.686   3.689   2.945  1.2028 -0.0552  0.4580
18107THY    HA339987   3.597   3.748   2.927  0.2777  1.2658 -0.4434
18107THY    CA439988   3.802   3.700   2.871 -0.8358  0.3788 -0.5764
18107THY    HA439989   3.824   3.778   2.799 -1.9015 -0.9574 -1.4674
18107THY    CA539990   3.912   3.612   2.896  0.5589 -0.2588 -0.2621
18107THY    CM139991   4.051   3.632   2.829 -0.2501 -0.7664 -0.1591
18107THY    HM139992   4.052   3.588   2.729 -0.8805 -0.9816  0.3080
18107THY    HM239993   4.124   3.573   2.884 -1.1478  0.9009  0.2197
18107THY    HM339994   4.092   3.734   2.828 -1.7913  1.9081  0.5862
18107THY    CA639995   3.904   3.509   2.990 -0.0720  0.2549  0.3657
18107THY    HA639996   3.993   3.454   3.019  0.9055 -2.2204  0.5267
18108THY      O39997   6.909   6.519   5.685 -0.0354 -0.0172  0.1441
18108THY     HO39998   6.942   6.441   5.638 -0.0308 -0.9668  0.7012
18108THY    CA139999   7.018   6.599   5.680  0.9069 -0.1151  0.8456
18108THY    CA240000   7.014   6.727   5.735 -0.3564  0.0761  0.3665
18108THY    CP140001   6.894   6.785   5.814 -0.2371 -0.0031  0.1712
18108THY    HP140002   6.803   6.748   5.767 -0.6516  1.3996 -0.6935
18108THY    CP240003   6.898   6.940   5.821  0.7235  0.6326  0.0361
18108THY    HP240004   6.806   6.980   5.864  1.1679  1.7838 -0.1313
18108THY    HP340005   6.906   6.968   5.716 -1.7100  0.0388 -1.2389
18108THY    HP440006   6.980   6.975   5.884  0.6142  0.2507  0.9858
18108THY    CP340007   6.889   6.730   5.962 -0.5196  0.9026 -0.2251
18108THY    HP540008   6.977   6.754   6.024  0.2442 -0.6238  1.0916
18108THY    HP640009   6.886   6.621   5.970  0.0226 -0.4024 -0.3521
18108THY    HP740010   6.808   6.770   6.024 -0.0262  1.1745  0.3834
18108THY    CA340011   7.140   6.788   5.749  0.0414  0.2838 -0.3965
18108THY    HA340012   7.155   6.877   5.810  0.8785  0.9126 -0.9511
18108THY    CA440013   7.255   6.736   5.682  0.0138 -0.9030  0.2165
18108THY    HA440014   7.349   6.790   5.672  0.4687 -1.8489 -0.7272
18108THY    CA540015   7.251   6.618   5.610 -0.0618 -0.2594  0.4461
18108THY    CM140016   7.368   6.560   5.542  0.4363 -0.3845  0.3774
18108THY    HM140017   7.386   6.609   5.445 -0.6596 -0.6153  0.3348
18108THY    HM240018   7.357   6.455   5.514 -0.3408 -0.0173  0.3518
18108THY    HM340019   7.453   6.567   5.611 -0.3605  0.4860  2.0762
18108THY    CA640020   7.132   6.545   5.619  0.2119 -0.1364  0.1517
18108THY    HA640021   7.132   6.445   5.578  0.0730 -0.0279  0.1056
18109THY      O40022   3.954   2.563   6.947 -0.0397  0.4055  0.7173
18109THY     HO40023   3.870   2.570   6.996 -0.3426  0.0379 -0.2145
18109THY    CA140024   3.922   2.594   6.816 -0.0768 -0.3084 -0.1762
18109THY    CA240025   4.001   2.542   6.715  0.6064  0.4209 -0.3140
18109THY    CP140026   4.119   2.460   6.743  0.1288  0.6025 -0.5531
18109THY    HP140027   4.127   2.424   6.846  2.6956  1.7386  2.7050
18109THY    CP240028   4.252   2.534   6.726  0.1646  0.0184 -0.7254
18109THY    HP240029   4.251   2.617   6.798 -0.7569 -2.4925  1.5633
18109THY    HP340030   4.246   2.573   6.624 -0.3596  1.1211  2.3693
18109THY    HP440031   4.335   2.464   6.741  2.5932  0.3523  2.0491
18109THY    CP340032   4.110   2.340   6.647  0.3675  0.8490 -0.1489
18109THY    HP540033   4.108   2.360   6.539  1.4314  0.6667 -0.9735
18109THY    HP640034   4.039   2.263   6.680  1.0719  0.2280 -1.0928
18109THY    HP740035   4.198   2.278   6.668  0.7875 -0.5556 -0.0803
18109THY    CA340036   3.974   2.586   6.580  0.2795  0.2572 -0.7300
18109THY    HA340037   4.039   2.564   6.496 -0.4991 -1.0201  1.4951
18109THY    CA440038   3.861   2.667   6.555 -0.3818 -0.3734  0.3553
18109THY    HA440039   3.838   2.704   6.456 -2.3276  0.3114  1.1385
18109THY    CA540040   3.778   2.711   6.654  0.0614 -0.7584 -0.1259
18109THY    CM140041   3.672   2.810   6.622  0.1380  0.1754  0.1983
18109THY    HM140042   3.631   2.784   6.524  0.2219  0.2927 -0.3809
18109THY    HM240043   3.700   2.916   6.626  0.1888  1.6463  0.1495
18109THY    HM340044   3.582   2.823   6.682 -0.7828 -1.1874  0.2944
18109THY    CA640045   3.808   2.669   6.788 -0.4009 -0.2912 -0.0154
18109THY    HA640046   3.743   2.702   6.869 -1.9440 -0.7963 -1.6412
18110THY      O40047   9.015   1.270   2.874 -0.3048  1.0607  0.3165
18110THY     HO40048   9.066   1.277   2.791 -1.9804 -0.0358  0.1005
18110THY    CA140049   9.087   1.184   2.944 -0.0243  0.1053  0.2343
18110THY    CA240050   9.035   1.057   2.972 -0.4413 -0.1809  0.0575
18110THY    CP140051   8.919   1.008   2.889  0.2461  0.1392 -0.1953
18110THY    HP140052   8.882   1.082   2.817  0.9720  0.1711  0.2098
18110THY    CP240053   8.818   0.933   2.977  0.0916  0.2985  0.1612
18110THY    HP240054   8.732   0.895   2.920 -0.8484 -0.1613  2.7425
18110THY    HP340055   8.777   1.000   3.053 -1.3837 -0.6705  0.3999
18110THY    HP440056   8.858   0.847   3.031  1.2542 -0.7016  0.0503
18110THY    CP340057   8.975   0.910   2.782  0.3337 -0.2702  0.4408
18110THY    HP540058   8.904   0.916   2.699 -0.6746  0.6311  1.2325
18110THY    HP640059   8.993   0.811   2.826  0.8013 -0.5201  0.4123
18110THY    HP740060   9.073   0.945   2.746  2.0417 -0.4214 -3.8634
18110THY    CA340061   9.105   0.967   3.056 -0.5257  0.1005  0.2657
18110THY    HA340062   9.078   0.864   3.078 -1.5653 -2.7237 -0.1490
18110THY    CA440063   9.228   1.012   3.112  0.3009 -0.3239  0.5225
18110THY    HA440064   9.272   0.953   3.192 -1.0132  0.1380  0.1205
18110THY    CA540065   9.275   1.140   3.093 -0.3769  0.1855 -0.5024
18110THY    CM140066   9.385   1.189   3.176  0.6505  0.1952  1.1059
18110THY    HM140067   9.367   1.166   3.282 -2.8472 -0.3717  0.6997
18110THY    HM240068   9.393   1.297   3.161  3.1139  1.9344  1.2567
18110THY    HM340069   9.482   1.145   3.149  0.2708 -1.4752  1.2408
18110THY    CA640070   9.210   1.227   3.004 -0.4884 -0.4550 -0.2266
18110THY    HA640071   9.252   1.326   2.990  1.1693  0.0804 -0.8259
18111THY      O40072   8.662   8.196   7.001 -0.6540  0.2319  0.2747
18111THY     HO40073   8.659   8.293   7.001 -0.1719  0.0949  0.2886
18111THY    CA140074   8.581   8.159   7.101  0.2464 -0.9622  0.5789
18111THY    CA240075   8.508   8.040   7.097  0.4726  0.4764  0.7567
18111THY    CP140076   8.478   7.972   6.958 -0.0187 -0.6042 -0.5841
18111THY    HP140077   8.515   8.034   6.875 -1.8032 -0.0119  1.4022
18111THY    CP240078   8.328   7.947   6.936 -0.0447  0.5430  1.1128
18111THY    HP240079   8.300   7.901   6.840  0.3893  0.4940  0.9503
18111THY    HP340080   8.268   8.039   6.928 -1.0873 -1.0329  0.3398
18111THY    HP440081   8.286   7.889   7.019 -1.3831 -0.0786  1.1465
18111THY    CP340082   8.572   7.853   6.943 -0.1605  0.1673  0.7305
18111THY    HP540083   8.547   7.804   6.849  0.1189  0.3839  0.1689
18111THY    HP640084   8.530   7.780   7.013  0.4814  1.1825  1.3006
18111THY    HP740085   8.678   7.868   6.969 -0.2192  0.1209  1.2396
18111THY    CA340086   8.451   7.996   7.219  0.1035 -0.4276  0.6934
18111THY    HA340087   8.387   7.908   7.222 -0.4079  0.9587  1.0763
18111THY    CA440088   8.461   8.066   7.339 -0.5060 -0.2558  0.4243
18111THY    HA440089   8.428   8.021   7.432 -0.7864 -0.6096 -0.1237
18111THY    CA540090   8.552   8.177   7.339  0.4959  0.0016  0.2632
18111THY    CM140091   8.574   8.254   7.468  0.1265  0.3595  0.5006
18111THY    HM140092   8.544   8.357   7.446 -2.2474 -1.2864 -0.4513
18111THY    HM240093   8.680   8.250   7.498 -0.2212  1.5123 -2.0513
18111THY    HM340094   8.524   8.214   7.556  0.6898 -0.0510 -1.1918
18111THY    CA640095   8.606   8.221   7.218  0.0143  0.1809  0.0403
18111THY    HA640096   8.676   8.303   7.217  0.3827  1.4877 -0.2432
18112THY      O40097   3.777   7.618   7.756  0.1578 -0.0896  0.1635
18112THY     HO40098   3.740   7.610   7.846  0.5233 -0.0969 -2.0295
18112THY    CA140099   3.912   7.584   7.774  0.0942 -0.3632 -0.1040
18112THY    CA240100   4.013   7.575   7.675  0.3816 -0.1460  0.0344
18112THY    CP140101   3.984   7.607   7.530  0.4339  0.2888  0.1556
18112THY    HP140102   3.877   7.617   7.511  0.2640 -1.0075 -3.1515
18112THY    CP240103   4.040   7.508   7.432 -0.4672  0.5707 -0.8446
18112THY    HP240104   4.004   7.536   7.332  0.2459  0.4314 -0.3928
18112THY    HP340105   4.008   7.406   7.454 -2.3239 -0.2201 -0.4887
18112THY    HP440106   4.148   7.520   7.424 -0.4662 -3.8438 -2.0408
18112THY    CP340107   4.030   7.747   7.486  0.2388  0.7368  0.5305
18112THY    HP540108   4.139   7.751   7.482  0.4300  2.1625 -1.4663
18112THY    HP640109   3.980   7.817   7.555  0.2166  1.4515 -0.1737
18112THY    HP740110   3.990   7.774   7.388  1.3826 -0.0820 -0.6524
18112THY    CA340111   4.145   7.543   7.706  0.2606  0.3832  0.2528
18112THY    HA340112   4.220   7.536   7.628 -2.0368 -1.9746 -0.1430
18112THY    CA440113   4.178   7.504   7.840 -0.1314  0.6644  0.4954
18112THY    HA440114   4.280   7.477   7.863 -0.2910  0.6841 -0.1008
18112THY    CA540115   4.081   7.511   7.936  0.1269 -0.2812 -0.3808
18112THY    CM140116   4.110   7.496   8.084  0.5080 -0.1520  0.3318
18112THY    HM140117   4.167   7.403   8.089  0.9333 -0.8187  0.5525
18112THY    HM240118   4.013   7.498   8.135  0.3352 -0.1943 -2.6629
18112THY    HM340119   4.162   7.583   8.126  0.4230  0.2003  0.2147
18112THY    CA640120   3.950   7.555   7.906 -0.3308 -0.4531 -0.5515
18112THY    HA640121   3.876   7.571   7.984  0.5586 -0.2682  4.1452
18113THY      O40122   4.856   3.210   3.084  0.5953 -0.4922  0.0022
18113THY     HO40123   4.821   3.119   3.085  0.1561 -2.1805  0.1179
18113THY    CA140124   4.869   3.249   3.213  0.2083 -0.2660 -0.2017
18113THY    CA240125   4.994   3.289   3.270 -0.1647  0.7581  0.3339
18113THY    CP140126   5.124   3.283   3.184  0.0969  0.2531 -0.2016
18113THY    HP140127   5.101   3.241   3.086 -0.8324 -0.4784  1.8581
18113THY    CP240128   5.228   3.188   3.240  0.0155 -0.1964  0.0088
18113THY    HP240129   5.238   3.218   3.345 -0.6058  0.5484 -2.1731
18113THY    HP340130   5.323   3.173   3.187 -0.1050 -0.9373  1.6549
18113THY    HP440131   5.187   3.087   3.244  1.5777 -0.9700 -0.6975
18113THY    CP340132   5.182   3.425   3.153  0.6033 -1.0242 -0.1799
18113THY    HP540133   5.279   3.423   3.102  0.5778 -1.0629 -1.0628
18113THY    HP640134   5.191   3.493   3.239 -0.8187 -1.6249  0.8111
18113THY    HP740135   5.118   3.481   3.084  1.0681  0.0041  1.7155
18113THY    CA340136   4.997   3.335   3.401  0.5696 -0.4705 -0.0157
18113THY    HA340137   5.084   3.365   3.459  0.6367 -0.8505  0.5302
18113THY    CA440138   4.876   3.361   3.467 -0.4208  0.1315  0.2186
18113THY    HA440139   4.879   3.406   3.565  1.8702 -0.4781  1.5448
18113THY    CA540140   4.750   3.333   3.403 -0.4043  0.2181  0.2730
18113THY    CM140141   4.618   3.354   3.471 -0.2685 -0.3650  0.0381
18113THY    HM140142   4.536   3.396   3.412  0.9530 -1.4436  0.9722
18113THY    HM240143   4.630   3.422   3.556 -0.1994  2.8957 -3.6761
18113THY    HM340144   4.582   3.255   3.501 -0.6712  0.7057  0.4862
18113THY    CA640145   4.748   3.276   3.282 -0.5795  0.2288  0.0592
18113THY    HA640146   4.657   3.248   3.229  0.2268 -0.8664 -0.5281
18114THY      O40147   2.023   9.016   5.596 -1.2217 -0.5776 -0.0102
18114THY     HO40148   2.058   8.925   5.587  0.8729 -2.3473  0.8604
18114THY    CA140149   1.892   9.001   5.633 -0.3622 -0.0689  0.4674
18114THY    CA240150   1.789   9.088   5.590 -0.3556  0.1739  0.5309
18114THY    CP140151   1.824   9.211   5.489  0.3095 -0.0438  0.2480
18114THY    HP140152   1.930   9.222   5.461  0.7338  1.7153  1.0067
18114THY    CP240153   1.769   9.352   5.529  0.3899  0.1250 -0.8341
18114THY    HP240154   1.660   9.357   5.525  0.3491  0.0372 -1.6766
18114THY    HP340155   1.805   9.431   5.462 -2.7978  0.5355  1.1312
18114THY    HP440156   1.791   9.369   5.635 -1.0115  0.3984 -0.6564
18114THY    CP340157   1.774   9.173   5.349  0.9358 -0.1162 -0.1945
18114THY    HP540158   1.796   9.257   5.283 -3.2423 -1.3068  0.1835
18114THY    HP640159   1.665   9.163   5.352  1.1181  0.2530 -2.9822
18114THY    HP740160   1.813   9.072   5.331 -1.5224  0.9343 -1.3987
18114THY    CA340161   1.659   9.079   5.633  0.5709 -0.5817  0.3216
18114THY    HA340162   1.583   9.147   5.596 -0.5384 -0.1409 -0.6252
18114THY    CA440163   1.621   8.962   5.707 -0.7611  0.3160 -0.4917
18114THY    HA440164   1.517   8.954   5.738 -1.3175 -0.9355  1.2807
18114THY    CA540165   1.717   8.874   5.752  0.0605 -0.5574 -0.4137
18114THY    CM140166   1.664   8.769   5.849  0.0443  0.6494 -0.3253
18114THY    HM140167   1.641   8.800   5.952 -0.9532  0.2618  0.2641
18114THY    HM240168   1.733   8.684   5.846  0.8271  0.2111  0.3166
18114THY    HM340169   1.572   8.725   5.811  0.3072 -1.5798  0.9144
18114THY    CA640170   1.852   8.891   5.712  0.2660  0.7276  0.1728
18114THY    HA640171   1.932   8.832   5.756  0.6917  1.7464  1.4570
18115THY      O40172   8.998   9.026   4.882  0.2044 -0.8570 -0.1433
18115THY     HO40173   8.954   9.084   4.818 -2.0769  1.9083  1.4290
18115THY    CA140174   9.076   8.942   4.804  0.7820 -0.8517  0.7207
18115THY    CA240175   9.143   8.831   4.850  0.4334 -0.5063 -0.0967
18115THY    CP140176   9.141   8.797   5.001 -0.1030 -0.0390  0.2455
18115THY    HP140177   9.044   8.821   5.044  0.6935  2.2677 -0.4513
18115THY    CP240178   9.243   8.884   5.071 -0.4333 -0.3982 -0.1684
18115THY    HP240179   9.245   8.868   5.179 -0.0359 -0.3781  0.0250
18115THY    HP340180   9.234   8.990   5.043 -1.7692 -0.7198 -0.3519
18115THY    HP440181   9.344   8.852   5.045 -0.4043 -0.0200 -0.3832
18115THY    CP340182   9.170   8.648   5.026 -0.1097 -0.4368 -0.3753
18115THY    HP540183   9.270   8.616   4.994 -0.3421  0.6272 -2.3025
18115THY    HP640184   9.100   8.584   4.972 -0.8462  0.6243 -0.4921
18115THY    HP740185   9.168   8.629   5.134 -1.0889 -0.0932  1.5005
18115THY    CA340186   9.224   8.755   4.758  0.0684  0.7254 -0.2832
18115THY    HA340187   9.281   8.667   4.788  1.0565  0.6735  0.3220
18115THY    CA440188   9.231   8.796   4.621  0.3372 -0.3657 -0.3192
18115THY    HA440189   9.297   8.747   4.551  1.3154 -0.3781  0.9718
18115THY    CA540190   9.160   8.908   4.576  0.0951 -0.7547 -0.4256
18115THY    CM140191   9.173   8.942   4.438 -0.4475 -0.4989  0.4393
18115THY    HM140192   9.267   8.994   4.416  0.2617 -1.1936 -1.0568
18115THY    HM240193   9.089   9.002   4.400 -0.8555  0.4906  0.5050
18115THY    HM340194   9.166   8.847   4.383 -1.0314 -0.2139  0.3153
18115THY    CA640195   9.081   8.981   4.670  0.1541  0.5265 -0.1717
18115THY    HA640196   9.039   9.070   4.626  0.1560 -1.0349 -0.9036
18116THY      O40197   1.544   3.178   5.130 -0.0449  0.0726  0.8247
18116THY     HO40198   1.457   3.150   5.097  0.5444  1.4485 -3.2634
18116THY    CA140199   1.576   3.293   5.062 -0.7008 -0.0419 -0.0581
18116THY    CA240200   1.695   3.301   4.989  0.1724 -0.1690  1.3247
18116THY    CP140201   1.787   3.183   4.989 -0.1284 -0.0267 -1.2352
18116THY    HP140202   1.788   3.126   5.082  1.8930 -0.6017 -2.2655
18116THY    CP240203   1.939   3.227   4.982 -0.0229 -0.2100  0.0244
18116THY    HP240204   1.960   3.242   4.876 -1.9719 -0.2033  4.3605
18116THY    HP340205   1.997   3.138   5.010 -0.7286  2.5633  0.3245
18116THY    HP440206   1.967   3.305   5.053 -1.9017 -1.2124  1.6800
18116THY    CP340207   1.761   3.083   4.865  0.2529 -0.4028  0.0413
18116THY    HP540208   1.759   3.129   4.765 -1.3267 -1.2973 -1.8386
18116THY    HP640209   1.661   3.041   4.881  0.0920  0.6242  0.7707
18116THY    HP740210   1.834   3.002   4.867  0.3203 -0.0298  0.1116
18116THY    CA340211   1.704   3.414   4.899 -0.0171 -0.5357 -0.1799
18116THY    HA340212   1.784   3.408   4.826  0.6408 -0.0630  1.9199
18116THY    CA440213   1.619   3.525   4.905  0.2487  0.3557 -0.5731
18116THY    HA440214   1.627   3.615   4.843 -0.6643  0.9310 -0.0820
18116THY    CA540215   1.517   3.520   5.003 -0.1554  0.0669 -0.0571
18116THY    CM140216   1.420   3.634   5.017  0.5577  0.1188  0.0423
18116THY    HM140217   1.415   3.653   5.124  1.5039 -0.0192  1.1324
18116THY    HM240218   1.322   3.621   4.968  1.1847 -1.5676  1.3766
18116THY    HM340219   1.446   3.723   4.958 -0.0691  0.6500  0.5870
18116THY    CA640220   1.498   3.405   5.072  0.5804 -0.7790 -0.0136
18116THY    HA640221   1.408   3.405   5.134  1.3365  0.3754 -1.1310
18117THY      O40222   8.866   6.970   5.045  0.3176 -0.2610  0.1221
18117THY     HO40223   8.811   6.963   5.125 -0.2661 -0.6378  0.3283
18117THY    CA140224   8.820   6.866   4.969 -0.0901 -0.0927 -1.0185
18117THY    CA240225   8.888   6.828   4.847  0.1867 -0.2484  0.8624
18117THY    CP140226   9.008   6.902   4.791  0.3913 -0.1744 -0.0325
18117THY    HP140227   8.976   7.005   4.808  0.8834  0.7654 -0.0229
18117THY    CP240228   9.018   6.879   4.639 -0.1050  0.5662  0.0368
18117THY    HP240229   9.026   6.774   4.610 -2.2658 -0.7163  0.1749
18117THY    HP340230   9.100   6.948   4.615 -1.9973  1.3603  2.7569
18117THY    HP440231   8.931   6.905   4.578  1.2669 -1.5899 -0.1895
18117THY    CP340232   9.136   6.865   4.861 -0.7339 -0.5872 -0.1435
18117THY    HP540233   9.137   6.905   4.963  1.1602 -0.2023 -1.0231
18117THY    HP640234   9.219   6.911   4.806 -0.7327 -0.5627 -0.1165
18117THY    HP740235   9.157   6.757   4.861  0.2287  0.2554  0.0295
18117THY    CA340236   8.835   6.708   4.798 -0.5498  0.4944  0.0676
18117THY    HA340237   8.883   6.660   4.713  0.1868  1.4530 -0.9800
18117THY    CA440238   8.735   6.637   4.858 -0.6116 -0.2148  0.8096
18117THY    HA440239   8.700   6.542   4.817 -2.6824  3.9558 -0.4835
18117THY    CA540240   8.663   6.685   4.969 -0.7293  0.2368  0.0223
18117THY    CM140241   8.548   6.613   5.036 -0.2906 -0.0906  0.2940
18117THY    HM140242   8.463   6.675   5.065 -0.1106  0.6393  0.2109
18117THY    HM240243   8.593   6.572   5.127 -0.7397 -0.4444 -1.0614
18117THY    HM340244   8.509   6.532   4.972 -0.3145 -0.3347  0.4982
18117THY    CA640245   8.713   6.804   5.032 -0.6014 -0.3533 -1.3455
18117THY    HA640246   8.661   6.843   5.119 -1.1316 -1.9750  1.8792
18118THY      O40247   0.568   1.850   5.971  0.3522 -0.8065  0.1798
18118THY     HO40248   0.493   1.795   6.001 -0.9523 -1.4790  1.5133
18118THY    CA140249   0.625   1.787   5.869  0.2513  0.2411 -0.5664
18118THY    CA240250   0.750   1.827   5.828  0.2031  0.1402 -0.4340
18118THY    CP140251   0.837   1.932   5.908  0.6873  0.1659 -0.4078
18118THY    HP140252   0.774   1.985   5.980 -0.0074 -0.8992  0.2372
18118THY    CP240253   0.909   2.042   5.828  1.1001  0.4139  0.2002
18118THY    HP240254   0.859   2.080   5.738 -0.4612  0.9099 -0.6138
18118THY    HP340255   1.009   2.017   5.791  1.0789  0.5939 -0.1642
18118THY    HP440256   0.926   2.130   5.892 -1.0006  0.9438  0.2730
18118THY    CP340257   0.947   1.861   5.994 -0.0245  0.9644  0.0785
18118THY    HP540258   1.000   1.932   6.059  0.0595  2.6068 -1.4083
18118THY    HP640259   1.019   1.807   5.931  0.0019  1.9853 -1.1235
18118THY    HP740260   0.892   1.792   6.060 -0.8629  0.1116 -0.0789
18118THY    CA340261   0.791   1.794   5.692 -0.3004 -0.1058  0.0405
18118THY    HA340262   0.873   1.851   5.649 -0.3544 -0.5885 -0.2462
18118THY    CA440263   0.712   1.710   5.618  0.1352 -0.2013  0.7395
18118THY    HA440264   0.742   1.681   5.517 -1.2308 -0.6449  0.8117
18118THY    CA540265   0.595   1.664   5.667  1.2042 -0.2984  0.0658
18118THY    CM140266   0.507   1.566   5.584 -0.2773  0.5087 -0.0579
18118THY    HM140267   0.467   1.620   5.497  1.5304 -0.2975  0.0494
18118THY    HM240268   0.420   1.541   5.646  0.1605  1.6396  1.0911
18118THY    HM340269   0.561   1.483   5.537  1.1013  1.5729  0.1912
18118THY    CA640270   0.542   1.710   5.789  0.2753 -0.3569 -0.1925
18118THY    HA640271   0.445   1.680   5.827  1.3483  3.2550  0.4427
18119THY      O40272   1.294   6.318   2.915 -0.1024 -0.3666  1.0430
18119THY     HO40273   1.322   6.375   2.841 -2.7972 -1.1428  1.4918
18119THY    CA140274   1.165   6.340   2.932 -0.0231 -0.8098  0.0223
18119THY    CA240275   1.094   6.271   3.029  0.2553  0.2349 -0.3465
18119THY    CP140276   1.156   6.160   3.110  0.2070 -0.0425 -0.4693
18119THY    HP140277   1.262   6.149   3.082  0.0502 -1.9959  2.1821
18119THY    CP240278   1.085   6.020   3.075  0.3295 -0.7286  0.2574
18119THY    HP240279   1.000   6.005   3.143  1.7709  0.9527 -0.6802
18119THY    HP340280   1.167   5.948   3.088  0.6954  0.1305  0.8085
18119THY    HP440281   1.044   6.009   2.974 -0.7538 -0.2731 -0.0471
18119THY    CP340282   1.146   6.198   3.256  0.2429  0.8929  0.1545
18119THY    HP540283   1.245   6.179   3.298  0.7573 -0.6549 -0.7582
18119THY    HP640284   1.071   6.144   3.315 -0.3140  0.6632  0.6710
18119THY    HP740285   1.130   6.306   3.266 -0.7390 -1.4781  0.2937
18119THY    CA340286   0.959   6.309   3.057 -0.7383 -0.2273  0.0869
18119THY    HA340287   0.893   6.257   3.126 -0.0976  1.0330  0.9042
18119THY    CA440288   0.901   6.414   2.985  0.3924  0.3205  0.4565
18119THY    HA440289   0.806   6.461   3.006  1.1351  3.7770  0.6641
18119THY    CA540290   0.972   6.483   2.885 -0.5383 -0.8717  0.8150
18119THY    CM140291   0.925   6.604   2.807  0.9932 -0.4083  0.3218
18119THY    HM140292   0.981   6.695   2.831 -0.5584  1.1535  0.9173
18119THY    HM240293   0.818   6.618   2.826  1.2031  0.2629  1.1041
18119THY    HM340294   0.936   6.586   2.699  1.5567  0.0324 -2.3769
18119THY    CA640295   1.105   6.442   2.858  0.1878  0.0820 -0.5944
18119THY    HA640296   1.166   6.503   2.791  1.0891  2.7032  1.5967
18120THY      O40297   2.707   8.244   6.475 -0.8666  0.0409  0.2610
18120THY     HO40298   2.738   8.278   6.561  0.2252  0.1789 -0.9898
18120THY    CA140299   2.763   8.327   6.384  1.2837 -0.3864 -0.0832
18120THY    CA240300   2.746   8.307   6.250  0.2670  0.2390  0.3160
18120THY    CP140301   2.654   8.204   6.186  0.3975 -0.0615  0.0042
18120THY    HP140302   2.574   8.178   6.257 -1.4881 -1.4734  1.6603
18120THY    CP240303   2.732   8.076   6.148  0.9394  0.4164 -0.4720
18120THY    HP240304   2.661   7.999   6.115 -0.2278  1.1353  0.2750
18120THY    HP340305   2.774   8.026   6.236  1.2023 -0.4626 -1.8776
18120THY    HP440306   2.802   8.084   6.064 -2.2083 -2.5587 -1.5811
18120THY    CP340307   2.581   8.248   6.073 -0.4131 -0.2922  0.3278
18120THY    HP540308   2.549   8.347   6.108  2.9356 -0.5445  1.6229
18120THY    HP640309   2.493   8.187   6.050 -0.8454  0.1066  0.7899
18120THY    HP740310   2.641   8.265   5.983  2.1818  0.7841 -2.3259
18120THY    CA340311   2.814   8.400   6.164  0.0094  0.3465  0.1654
18120THY    HA340312   2.790   8.407   6.058 -1.4251  0.3835 -2.8083
18120THY    CA440313   2.905   8.498   6.213 -0.2786 -0.3061 -0.5851
18120THY    HA440314   2.963   8.566   6.151  0.7595  2.8615  1.6328
18120THY    CA540315   2.909   8.515   6.350  1.4608 -0.3086  0.5269
18120THY    CM140316   3.004   8.619   6.401 -0.4488  0.1838  0.3411
18120THY    HM140317   2.955   8.650   6.494 -1.2877 -0.0460 -0.2390
18120THY    HM240318   2.995   8.712   6.345  1.3337 -1.7881 -0.5909
18120THY    HM340319   3.109   8.587   6.393 -0.1053 -0.2367  1.5473
18120THY    CA640320   2.837   8.432   6.435  0.0701 -0.3422  0.0722
18120THY    HA640321   2.843   8.462   6.539 -2.0614 -0.3329  0.6584
18121THY      O40322   3.951   7.794   3.906  0.4310  0.3537  0.3594
18121THY     HO40323   3.889   7.867   3.926  1.7399  1.3910  1.2307
18121THY    CA140324   4.076   7.850   3.885 -0.0749  0.1328 -0.0830
18121THY    CA240325   4.191   7.766   3.859 -0.2044  0.0149 -0.0095
18121THY    CP140326   4.182   7.610   3.864  0.4223  0.1457  0.3724
18121THY    HP140327   4.090   7.584   3.917 -0.1297 -1.3070 -0.7768
18121THY    CP240328   4.299   7.538   3.947  0.1130 -0.3351 -0.1432
18121THY    HP240329   4.282   7.433   3.972 -1.9286 -0.5307  0.1017
18121THY    HP340330   4.331   7.602   4.030  3.0506 -1.5360  0.1615
18121THY    HP440331   4.393   7.542   3.890  0.8288  0.8770  2.5704
18121THY    CP340332   4.163   7.542   3.726 -0.0650  0.2003 -0.0496
18121THY    HP540333   4.136   7.437   3.741  0.1907  1.2280  0.0219
18121THY    HP640334   4.256   7.547   3.668 -0.7173 -0.7367  2.6186
18121THY    HP740335   4.081   7.589   3.671 -1.5222  0.5449 -2.0608
18121THY    CA340336   4.312   7.833   3.841 -0.6800  0.2871  0.1192
18121THY    HA340337   4.401   7.771   3.846 -0.6014  1.0170  0.2826
18121THY    CA440338   4.318   7.973   3.847 -0.0845  0.5310  0.2718
18121THY    HA440339   4.409   8.024   3.818 -1.9988 -0.9971  3.0946
18121THY    CA540340   4.203   8.049   3.865 -0.0995 -0.0404 -0.9751
18121THY    CM140341   4.210   8.198   3.852 -1.2842 -1.1387  0.6813
18121THY    HM140342   4.223   8.251   3.947 -1.2076 -1.5606  1.4292
18121THY    HM240343   4.135   8.247   3.789 -1.6624 -1.2864 -0.0795
18121THY    HM340344   4.306   8.227   3.808 -1.6206 -2.7767 -0.5536
18121THY    CA640345   4.085   7.989   3.890 -0.6288 -0.0760 -0.2699
18121THY    HA640346   3.999   8.053   3.909 -0.5443 -0.0400 -0.1695
18122THY      O40347   4.046   1.349   2.111  0.2052  0.0292  0.2962
18122THY     HO40348   4.020   1.268   2.159 -2.1848 -0.8028  0.4906
18122THY    CA140349   4.035   1.308   1.980 -0.2592 -0.9936 -0.1670
18122THY    CA240350   4.087   1.377   1.874 -0.5766  0.6216  0.3676
18122THY    CP140351   4.165   1.506   1.878  0.4753  0.0678 -0.1835
18122THY    HP140352   4.184   1.527   1.984 -0.0066  0.0431  0.4369
18122THY    CP240353   4.084   1.618   1.825  0.6414  0.1119 -0.3021
18122THY    HP240354   4.081   1.613   1.715 -1.8438  0.1499 -0.9705
18122THY    HP340355   4.121   1.715   1.859 -1.9249  2.0673  0.1170
18122THY    HP440356   3.981   1.616   1.863 -0.1543 -1.9263 -0.8422
18122THY    CP340357   4.290   1.503   1.800 -0.0381  0.5172 -0.0487
18122THY    HP540358   4.269   1.488   1.693 -4.0295  1.1232  0.1373
18122THY    HP640359   4.357   1.429   1.845 -0.9036  1.9007 -0.0217
18122THY    HP740360   4.340   1.598   1.821  0.6067  0.6537 -0.4176
18122THY    CA340361   4.049   1.328   1.751  0.2898  1.1024 -0.0201
18122THY    HA340362   4.072   1.383   1.661  0.6347  0.5358 -1.0588
18122THY    CA440363   3.980   1.205   1.738 -0.2873 -0.3397 -0.3985
18122THY    HA440364   3.961   1.168   1.638 -0.4569 -0.8680  1.0750
18122THY    CA540365   3.934   1.139   1.851  0.0782  0.0155  0.0939
18122THY    CM140366   3.886   1.002   1.825  0.2784 -0.1153  0.0493
18122THY    HM140367   3.776   1.009   1.821  0.2030 -2.5790 -1.2469
18122THY    HM240368   3.916   0.928   1.900 -2.8895  1.4357  0.1561
18122THY    HM340369   3.918   0.975   1.724 -1.3194 -0.5399 -0.4042
18122THY    CA640370   3.961   1.190   1.976 -0.1773  0.6223  0.0796
18122THY    HA640371   3.933   1.134   2.065 -1.5916  0.4514  0.4895
18123THY      O40372   6.149   7.623   2.477 -0.1269  0.6587 -0.1879
18123THY     HO40373   6.218   7.559   2.453  0.0543  1.7470 -0.4238
18123THY    CA140374   6.085   7.575   2.591 -0.5479  0.0584  0.1256
18123THY    CA240375   5.957   7.624   2.634 -0.0207 -0.4771  0.1158
18123THY    CP140376   5.882   7.727   2.543 -0.3055  0.5201 -0.1854
18123THY    HP140377   5.948   7.763   2.463 -0.8237  0.4148  0.5627
18123THY    CP240378   5.833   7.849   2.629  0.5459  0.7055 -0.1312
18123THY    HP240379   5.894   7.880   2.714 -0.7030  0.8422  2.1606
18123THY    HP340380   5.736   7.823   2.671 -0.4104 -0.3860  1.5007
18123THY    HP440381   5.810   7.930   2.559  2.0603  0.0415 -0.2319
18123THY    CP340382   5.769   7.651   2.473  0.2864 -0.1946  0.0114
18123THY    HP540383   5.695   7.611   2.543  0.1561 -0.1489  0.3326
18123THY    HP640384   5.818   7.568   2.420  0.8930 -0.8220  0.7508
18123THY    HP740385   5.714   7.710   2.399 -0.4994 -0.8714 -1.5118
18123THY    CA340386   5.908   7.582   2.762  0.0117 -0.3245 -0.0146
18123THY    HA340387   5.812   7.622   2.795  0.5207  1.2788 -0.0307
18123THY    CA440388   5.975   7.488   2.841 -0.3472 -0.1640 -0.1112
18123THY    HA440389   5.938   7.455   2.938  2.8932  0.4342 -2.4898
18123THY    CA540390   6.097   7.439   2.790  0.1287 -0.0483  0.6640
18123THY    CM140391   6.178   7.348   2.868  0.0424  0.8389  0.2523
18123THY    HM140392   6.150   7.332   2.973 -1.8246  0.1676 -1.2989
18123THY    HM240393   6.282   7.381   2.870 -0.3205  1.8917  1.4123
18123THY    HM340394   6.174   7.257   2.807 -1.6295 -2.5196  2.4107
18123THY    CA640395   6.148   7.474   2.668  0.0903  0.4628  0.3118
18123THY    HA640396   6.242   7.439   2.626  1.0780  0.8738  2.3144
18124THY      O40397   3.918   0.826   6.990  0.1316 -0.4067 -0.2249
18124THY     HO40398   3.860   0.880   6.935 -1.5142  2.8403  1.6017
18124THY    CA140399   3.929   0.888   7.114  0.4987 -0.4549 -0.7448
18124THY    CA240400   4.032   0.841   7.206 -0.2183 -0.2717  0.2114
18124THY    CP140401   4.140   0.748   7.149 -0.8230  0.2480 -0.1617
18124THY    HP140402   4.160   0.768   7.043 -0.1835  0.1731 -1.1629
18124THY    CP240403   4.085   0.604   7.166  0.1152 -0.6964  0.1919
18124THY    HP240404   4.039   0.570   7.259  2.4642  0.1432 -0.9080
18124THY    HP340405   4.166   0.531   7.155 -1.4444 -0.6556 -1.6339
18124THY    HP440406   4.022   0.592   7.077  0.3452 -1.3468  3.0290
18124THY    CP340407   4.282   0.756   7.210  0.3027  0.0728 -0.5207
18124THY    HP540408   4.343   0.683   7.155 -1.0551  0.3473 -1.9173
18124THY    HP640409   4.289   0.728   7.316 -0.6178  0.0488 -0.8921
18124THY    HP740410   4.327   0.855   7.208 -1.1599 -2.2864  0.1937
18124THY    CA340411   4.044   0.909   7.325 -0.0473  1.0268  0.4827
18124THY    HA340412   4.121   0.874   7.394  1.1075  0.5393  1.9775
18124THY    CA440413   3.954   1.011   7.350 -0.5646 -0.3527  0.0450
18124THY    HA440414   3.961   1.066   7.444 -1.1592 -0.6537  0.6487
18124THY    CA540415   3.840   1.040   7.274 -0.6161 -0.6962  0.2175
18124THY    CM140416   3.724   1.125   7.334  0.5819  0.0216 -0.9716
18124THY    HM140417   3.680   1.079   7.423  0.5203  0.7855  0.5014
18124THY    HM240418   3.646   1.147   7.260  0.6339  0.7252  2.0580
18124THY    HM340419   3.753   1.223   7.373 -0.8759  0.5141 -0.7198
18124THY    CA640420   3.830   0.980   7.156  0.4907  0.0910 -0.2303
18124THY    HA640421   3.747   1.009   7.093 -0.0497  1.5740  1.5605
18125THY      O40422   5.069   8.316   3.823  0.5556  0.0834 -0.0005
18125THY     HO40423   5.012   8.266   3.883 -0.6254  0.8478  2.1218
18125THY    CA140424   5.072   8.245   3.709 -0.8284  0.8152  0.7620
18125THY    CA240425   5.170   8.276   3.608 -0.3074  0.1406  0.1718
18125THY    CP140426   5.277   8.384   3.639 -0.6226 -1.1639 -0.8783
18125THY    HP140427   5.247   8.447   3.723 -0.5944 -0.7507 -1.4050
18125THY    CP240428   5.304   8.481   3.523  0.2420 -0.3538 -0.4024
18125THY    HP240429   5.214   8.542   3.513  0.1240 -1.9000 -0.7914
18125THY    HP340430   5.331   8.433   3.429  2.5507 -0.6998  1.3778
18125THY    HP440431   5.379   8.556   3.554 -0.5170  0.7067 -0.0549
18125THY    CP340432   5.404   8.308   3.667 -0.9016  0.2075 -0.2962
18125THY    HP540433   5.491   8.368   3.697 -0.5680  0.7555 -1.0380
18125THY    HP640434   5.435   8.255   3.576 -1.1145  0.0076 -0.0769
18125THY    HP740435   5.381   8.231   3.741  0.4711  0.3417 -0.6103
18125THY    CA340436   5.187   8.188   3.495  0.1068 -0.0619  0.5790
18125THY    HA340437   5.268   8.193   3.423  1.6992  1.6540  0.6759
18125THY    CA440438   5.096   8.079   3.495 -0.3079 -0.6048 -0.6170
18125THY    HA440439   5.108   8.012   3.411 -0.0975 -1.8192  0.8980
18125THY    CA540440   4.997   8.053   3.589 -0.4897 -0.4145 -0.3823
18125THY    CM140441   4.908   7.935   3.588 -0.3136 -0.2826  0.2495
18125THY    HM140442   4.952   7.855   3.648  0.3263 -1.2701 -0.1583
18125THY    HM240443   4.878   7.910   3.485 -0.2695 -1.0007  2.8705
18125THY    HM340444   4.814   7.964   3.636  0.7503  2.6313 -0.7321
18125THY    CA640445   4.982   8.142   3.697  0.4868 -0.4844 -0.3045
18125THY    HA640446   4.913   8.112   3.776  1.4270 -0.0505 -1.4123
18126THY      O40447   3.624   8.541   2.397 -0.4063  0.4361 -0.0067
18126THY     HO40448   3.552   8.537   2.332 -0.1370  0.1677 -0.5509
18126THY    CA140449   3.670   8.661   2.380 -0.5069 -0.4786 -0.0788
18126THY    CA240450   3.809   8.687   2.359  0.1664  0.6026 -0.7008
18126THY    CP140451   3.906   8.566   2.341  0.0432 -0.3041  0.3524
18126THY    HP140452   3.898   8.500   2.429  1.9906 -0.4868 -0.1975
18126THY    CP240453   4.054   8.618   2.323 -0.1285  0.5819 -0.0196
18126THY    HP240454   4.097   8.670   2.410 -0.4390  0.6000  0.2066
18126THY    HP340455   4.071   8.669   2.228 -0.5106  1.0304  0.9547
18126THY    HP440456   4.102   8.519   2.314 -1.7123 -3.2334 -0.6189
18126THY    CP340457   3.882   8.490   2.210 -0.0389 -0.0167 -0.3335
18126THY    HP540458   3.793   8.428   2.227 -0.5236  0.6273  0.5276
18126THY    HP640459   3.966   8.427   2.176  1.3756 -0.6386  1.7978
18126THY    HP740460   3.863   8.557   2.126  4.8186 -1.6292 -0.5558
18126THY    CA340461   3.850   8.823   2.356  0.3521  0.4219  0.1777
18126THY    HA340462   3.952   8.853   2.334  0.4561  0.4411 -0.1664
18126THY    CA440463   3.752   8.922   2.363 -0.4518  0.5920 -0.4565
18126THY    HA440464   3.787   9.024   2.372 -0.3156 -1.0038 -0.3315
18126THY    CA540465   3.616   8.893   2.381 -0.1207  0.0836  0.7723
18126THY    CM140466   3.514   8.997   2.350 -0.0699  0.4220 -0.4368
18126THY    HM140467   3.542   9.057   2.262 -0.6346 -0.3313 -1.2415
18126THY    HM240468   3.492   9.070   2.428 -2.5072 -0.2085 -0.4096
18126THY    HM340469   3.416   8.950   2.330  0.4142  0.9729 -1.7258
18126THY    CA640470   3.578   8.763   2.391 -0.0674 -0.2235 -0.3522
18126THY    HA640471   3.471   8.746   2.400  0.1595  0.2501 -1.5890
18127THY      O40472   4.554   8.191   4.878 -0.3951  0.2659  0.0033
18127THY     HO40473   4.475   8.230   4.919 -2.2777 -0.9971 -2.2678
18127THY    CA140474   4.513   8.067   4.845  0.7526  0.2422 -0.4169
18127THY    CA240475   4.532   8.023   4.712 -0.1110 -0.0731 -0.1711
18127THY    CP140476   4.595   8.114   4.611  0.1672 -0.4187 -0.0738
18127THY    HP140477   4.634   8.207   4.656  1.7700  2.3548 -1.9450
18127THY    CP240478   4.502   8.150   4.503  0.5124 -0.2253 -0.4819
18127THY    HP240479   4.521   8.240   4.444 -0.6873 -0.2347 -0.2210
18127THY    HP340480   4.409   8.199   4.534  0.0660 -3.3868  0.8932
18127THY    HP440481   4.481   8.070   4.431 -0.5907 -1.8585  1.2084
18127THY    CP340482   4.731   8.060   4.559  0.3012 -0.6319  0.1797
18127THY    HP540483   4.714   7.978   4.488 -0.9442 -0.1824  0.0294
18127THY    HP640484   4.793   8.033   4.646  2.3821 -1.7179  1.1655
18127THY    HP740485   4.789   8.136   4.505 -0.3297 -2.8845 -0.8587
18127THY    CA340486   4.482   7.898   4.672 -1.0002  0.3598  0.5490
18127THY    HA340487   4.485   7.865   4.569  2.2703  0.5951 -0.2689
18127THY    CA440488   4.424   7.819   4.772  0.3033 -0.0834 -0.3099
18127THY    HA440489   4.381   7.724   4.740 -1.8030  2.3810 -0.2803
18127THY    CA540490   4.410   7.864   4.895  0.0597 -0.3691 -0.1005
18127THY    CM140491   4.338   7.784   4.992  0.5748 -0.4084 -0.0482
18127THY    HM140492   4.379   7.802   5.092  0.9123 -0.2698 -1.5392
18127THY    HM240493   4.361   7.678   4.978 -0.1203  1.3058 -0.4647
18127THY    HM340494   4.231   7.806   5.002  0.5184 -0.9736 -0.0556
18127THY    CA640495   4.450   7.992   4.935  0.4671 -0.3018  0.5823
18127THY    HA640496   4.435   8.031   5.036 -0.1162 -0.3887  0.5931
18128THY      O40497   7.545   5.731   2.919 -0.0772 -0.0118 -0.2256
18128THY     HO40498   7.509   5.647   2.951 -0.1338 -0.0708 -0.2240
18128THY    CA140499   7.638   5.761   3.009  0.3214 -0.7414  0.4551
18128THY    CA240500   7.752   5.839   2.972 -0.0784  0.6937 -0.0565
18128THY    CP140501   7.760   5.899   2.830  0.3830  0.8709 -0.3056
18128THY    HP140502   7.672   5.880   2.768 -0.6460  2.4707 -0.9456
18128THY    CP240503   7.880   5.862   2.756  0.4962 -0.2217  0.5812
18128THY    HP240504   7.968   5.923   2.781  1.0417  0.1440 -0.3253
18128THY    HP340505   7.862   5.842   2.650  0.3759 -0.1374  0.2409
18128THY    HP440506   7.903   5.760   2.789 -0.4769  0.0079  0.4293
18128THY    CP340507   7.759   6.059   2.822  0.6811  0.6561 -0.0772
18128THY    HP540508   7.759   6.093   2.717 -1.0765  0.9623  0.9424
18128THY    HP640509   7.839   6.110   2.877  0.6628  1.6606 -1.0993
18128THY    HP740510   7.659   6.093   2.848 -0.5568 -0.5362 -2.5030
18128THY    CA340511   7.859   5.857   3.064  0.2780  0.3907  0.2150
18128THY    HA340512   7.949   5.914   3.047  0.9691  0.0919 -0.9410
18128THY    CA440513   7.842   5.793   3.193  0.0139 -0.1130 -0.4931
18128THY    HA440514   7.923   5.803   3.265 -0.5260  0.7846 -2.2346
18128THY    CA540515   7.729   5.721   3.227 -0.4264  1.1026  0.1268
18128THY    CM140516   7.733   5.643   3.357  0.2507  0.2653 -0.9771
18128THY    HM140517   7.786   5.698   3.436 -1.7131  1.3534 -0.5581
18128THY    HM240518   7.785   5.549   3.339  1.0051  1.4098 -0.8055
18128THY    HM340519   7.636   5.618   3.402  0.8396  1.5043 -1.1392
18128THY    CA640520   7.627   5.699   3.133  0.1017 -0.3618  0.0700
18128THY    HA640521   7.541   5.643   3.168 -1.3022 -1.7845  1.2509
18129THY      O40522   1.787   5.753   6.416 -0.3289 -0.0774 -0.0906
18129THY     HO40523   1.770   5.666   6.456  1.8625  0.9842 -0.1047
18129THY    CA140524   1.918   5.771   6.409 -0.0878  0.9005  0.6126
18129THY    CA240525   1.983   5.819   6.298 -0.2833  0.7291 -0.0678
18129THY    CP140526   1.909   5.861   6.174 -0.1349  0.0998  0.4473
18129THY    HP140527   1.804   5.888   6.192 -0.8250 -2.6484 -0.0829
18129THY    CP240528   1.897   5.746   6.076 -0.1943 -0.0831 -0.0416
18129THY    HP240529   1.822   5.672   6.108 -1.7108 -1.3645  0.8849
18129THY    HP340530   1.993   5.693   6.073  0.3947 -2.5556  1.0315
18129THY    HP440531   1.870   5.788   5.978 -0.4439  0.6338  1.5209
18129THY    CP340532   1.969   5.987   6.097  0.0663 -0.0696 -0.5351
18129THY    HP540533   2.038   5.958   6.017 -0.4664 -1.1738  1.0752
18129THY    HP640534   2.024   6.041   6.175  0.8265 -0.0076 -1.3824
18129THY    HP740535   1.887   6.051   6.062  0.9626 -2.2324 -0.4871
18129THY    CA340536   2.125   5.825   6.301 -0.5180  0.1668  0.6005
18129THY    HA340537   2.182   5.854   6.213 -1.2631 -0.4132  0.3445
18129THY    CA440538   2.196   5.792   6.418 -0.5765  0.3085  0.6843
18129THY    HA440539   2.304   5.789   6.409 -0.7021 -1.1178 -0.7453
18129THY    CA540540   2.124   5.742   6.526  0.2887  0.1533 -0.4804
18129THY    CM140541   2.201   5.712   6.657 -0.6000  0.1390 -0.5420
18129THY    HM140542   2.299   5.760   6.669 -1.4188 -0.9575  1.5561
18129THY    HM240543   2.194   5.608   6.690 -0.2525 -1.0537 -0.9630
18129THY    HM340544   2.148   5.771   6.732 -1.7282  0.2817 -1.6888
18129THY    CA640545   1.985   5.726   6.524 -0.2182 -0.3058  0.5069
18129THY    HA640546   1.926   5.689   6.607 -1.1064 -1.4576 -0.7926
18130THY      O40547   0.074   1.721   4.946  0.1931 -0.3280 -0.4483
18130THY     HO40548   0.076   1.785   4.872  0.2714  0.3281  0.3191
18130THY    CA140549   0.136   1.612   4.909 -0.4033 -0.3386  0.0812
18130THY    CA240550   0.192   1.517   5.001  0.6530 -0.0531 -0.2714
18130THY    CP140551   0.162   1.537   5.158  0.1570 -0.5770  0.0439
18130THY    HP140552   0.062   1.580   5.167  0.6814 -1.1202  1.4393
18130THY    CP240553   0.257   1.640   5.228 -0.0062  0.6559  0.7357
18130THY    HP240554   0.360   1.605   5.219  0.6140  0.4900  2.4942
18130THY    HP340555   0.217   1.646   5.330 -0.5139  1.2061 -5.7170
18130THY    HP440556   0.257   1.732   5.168  0.6283  1.2862  1.1530
18130THY    CP340557   0.170   1.397   5.233  0.6202 -0.2775  0.0461
18130THY    HP540558   0.274   1.382   5.265  0.5279  1.3409  2.3594
18130THY    HP640559   0.139   1.318   5.163 -0.5686 -0.2019  0.4232
18130THY    HP740560   0.113   1.393   5.327  3.4024  1.6354  1.5396
18130THY    CA340561   0.270   1.409   4.949 -0.6160  0.5714 -0.0509
18130THY    HA340562   0.315   1.333   5.013 -0.3898  0.0069 -0.4000
18130THY    CA440563   0.300   1.411   4.813 -0.1833  0.0050 -0.3048
18130THY    HA440564   0.353   1.328   4.769 -1.8154  0.1167 -1.4719
18130THY    CA540565   0.234   1.504   4.726 -0.0800  0.1008  0.8432
18130THY    CM140566   0.275   1.497   4.580 -0.0967  0.4675 -0.8127
18130THY    HM140567   0.368   1.556   4.578 -1.2867  3.3574  1.4460
18130THY    HM240568   0.200   1.549   4.519  0.6666  0.3746  0.2067
18130THY    HM340569   0.289   1.393   4.547 -0.0055  2.3760 -1.4466
18130THY    CA640570   0.163   1.606   4.776  0.2793 -0.9463 -0.4527
18130THY    HA640571   0.135   1.686   4.708 -3.4702 -0.5790 -1.2701
18131THY      O40572   4.253   2.171   4.686  0.8032  0.2881  0.1927
18131THY     HO40573   4.350   2.168   4.692  1.0957 -2.9126  0.0907
18131THY    CA140574   4.223   2.113   4.576  0.5680  0.7295  0.1348
18131THY    CA240575   4.094   2.127   4.520  0.6327 -0.7899  0.1370
18131THY    CP140576   3.989   2.218   4.588  0.1861  0.5503  0.0203
18131THY    HP140577   4.020   2.236   4.692  0.2043  0.3145  1.4752
18131THY    CP240578   3.852   2.157   4.597 -0.1212  0.4046 -0.3028
18131THY    HP240579   3.789   2.152   4.507 -0.0864  0.3545  0.1162
18131THY    HP340580   3.787   2.203   4.673 -1.2892  0.1950 -1.5551
18131THY    HP440581   3.865   2.060   4.646 -0.0939  1.4337  0.1953
18131THY    CP340582   3.974   2.358   4.515 -0.7187  0.0003  0.6830
18131THY    HP540583   3.913   2.419   4.583 -0.4179  0.1191  0.8514
18131THY    HP640584   3.913   2.356   4.424 -0.9375 -0.0467  3.9891
18131THY    HP740585   4.072   2.407   4.509 -0.1169 -1.3220 -0.6235
18131THY    CA340586   4.061   2.067   4.390 -0.3200 -0.2579 -1.2198
18131THY    HA340587   3.964   2.082   4.344 -1.6616  2.3536 -1.3047
18131THY    CA440588   4.164   2.000   4.324  0.4338  0.0461 -0.3356
18131THY    HA440589   4.149   1.960   4.225  1.2268  0.0240 -0.5916
18131THY    CA540590   4.286   1.979   4.389  0.0129 -0.1072 -0.0852
18131THY    CM140591   4.383   1.898   4.309  1.0954 -0.1140  0.4970
18131THY    HM140592   4.469   1.854   4.362  0.1428 -0.7268 -2.3152
18131THY    HM240593   4.418   1.970   4.234 -1.1414  0.8007  2.6526
18131THY    HM340594   4.336   1.811   4.263  2.7808  2.4342 -1.9490
18131THY    CA640595   4.324   2.038   4.510 -0.5735 -0.6418 -0.9111
18131THY    HA640596   4.427   2.023   4.543 -1.1544  0.6353 -2.3783
18132THY      O40597   2.801   2.767   5.769 -0.6055  0.1126  0.0132
18132THY     HO40598   2.888   2.789   5.806 -0.0818 -1.3836  0.5308
18132THY    CA140599   2.823   2.736   5.637 -1.0143  0.3984  0.2171
18132THY    CA240600   2.732   2.662   5.564  0.5632  0.6237  0.8747
18132THY    CP140601   2.594   2.617   5.620  0.0794 -0.5840 -0.6675
18132THY    HP140602   2.587   2.630   5.728  1.8065 -0.6978  2.1763
18132THY    CP240603   2.582   2.469   5.593  0.1082 -0.5645 -0.1593
18132THY    HP240604   2.584   2.444   5.487 -2.4482 -0.5267 -0.8201
18132THY    HP340605   2.496   2.428   5.647  0.6694 -0.1073 -0.7476
18132THY    HP440606   2.669   2.427   5.645 -1.3621  1.5938 -0.7031
18132THY    CP340607   2.468   2.682   5.553  0.0791 -0.1749  1.0616
18132THY    HP540608   2.450   2.631   5.458  0.6085 -0.6453  1.7391
18132THY    HP640609   2.486   2.781   5.510  0.2835 -0.3834  0.9372
18132THY    HP740610   2.380   2.689   5.618 -0.6029 -0.9811  0.2036
18132THY    CA340611   2.755   2.642   5.422  0.7392 -0.5096  0.6168
18132THY    HA340612   2.674   2.603   5.361  0.3555  0.7131 -0.5590
18132THY    CA440613   2.878   2.689   5.367 -0.8976 -0.4760  0.2842
18132THY    HA440614   2.898   2.678   5.261  1.3117  0.0726 -1.9426
18132THY    CA540615   2.967   2.762   5.447 -0.2714  0.1027  0.4059
18132THY    CM140616   3.102   2.804   5.395 -0.4361 -1.1814  0.2189
18132THY    HM140617   3.107   2.798   5.286  0.2003 -1.0711 -2.0467
18132THY    HM240618   3.169   2.726   5.433 -0.7648  1.7477  1.2559
18132THY    HM340619   3.134   2.904   5.427  0.8637  1.2403 -0.8826
18132THY    CA640620   2.944   2.781   5.583  0.2273  0.2643  0.1542
18132THY    HA640621   3.021   2.825   5.647  0.1184  2.1101 -2.1669
18133THY      O40622   7.248   9.487   3.182  0.2395  0.0315 -0.1731
18133THY     HO40623   7.298   9.483   3.265  0.3968 -0.0846 -0.8698
18133THY    CA140624   7.170   9.377   3.193 -1.1028 -0.1679 -0.3871
18133THY    CA240625   7.071   9.344   3.092 -0.2019 -0.4957  0.0321
18133THY    CP140626   7.060   9.422   2.968  0.5982 -0.7915  0.2361
18133THY    HP140627   7.129   9.507   2.972 -0.1434  0.1803  0.8145
18133THY    CP240628   6.914   9.491   2.962 -0.4444  0.3126  0.2703
18133THY    HP240629   6.900   9.553   3.051  0.8140 -0.0665  1.1214
18133THY    HP340630   6.839   9.411   2.970  0.1010  1.2305 -0.1674
18133THY    HP440631   6.897   9.548   2.870 -2.7344 -0.2268 -1.1537
18133THY    CP340632   7.097   9.340   2.838  0.3367 -0.0294 -0.3071
18133THY    HP540633   7.105   9.408   2.753 -0.6423  0.2076  0.1193
18133THY    HP640634   7.017   9.267   2.823  2.1349 -0.0829 -2.3509
18133THY    HP740635   7.190   9.284   2.850 -0.1844  0.7083 -1.0318
18133THY    CA340636   7.011   9.220   3.107 -0.3236  0.9248  0.1877
18133THY    HA340637   6.942   9.187   3.030 -0.6653  0.8679  0.9930
18133THY    CA440638   7.029   9.148   3.229  0.3313  0.1403 -0.6989
18133THY    HA440639   6.971   9.058   3.248 -0.1989 -0.4889 -0.5008
18133THY    CA540640   7.111   9.195   3.328 -0.4863  0.2771  0.2435
18133THY    CM140641   7.150   9.099   3.440 -0.1774  0.4942 -0.1723
18133THY    HM140642   7.222   9.143   3.510  2.1307 -1.0113 -1.3881
18133THY    HM240643   7.197   9.008   3.401 -0.0705  1.6253 -0.6193
18133THY    HM340644   7.063   9.081   3.504 -0.7541 -0.5512 -1.2582
18133THY    CA640645   7.187   9.308   3.310 -0.1442  0.4770  0.1490
18133THY    HA640646   7.268   9.330   3.379  1.5304 -1.3832  0.1093
18134THY      O40647   2.655   0.796   2.747  0.2440 -0.0010  0.2790
18134THY     HO40648   2.649   0.890   2.770 -1.9474 -1.2632  0.4937
18134THY    CA140649   2.541   0.752   2.691 -0.3002 -0.2811  0.3084
18134THY    CA240650   2.533   0.626   2.631  0.0434 -0.3508  0.1763
18134THY    CP140651   2.636   0.518   2.643  0.0574  0.1800 -0.4663
18134THY    HP140652   2.727   0.548   2.697  1.7496 -2.8919  0.3925
18134THY    CP240653   2.703   0.471   2.514  0.1549 -0.1813 -0.7343
18134THY    HP240654   2.749   0.558   2.467 -0.2868  0.3229 -0.2218
18134THY    HP340655   2.624   0.425   2.453 -0.7083 -0.1940  0.7000
18134THY    HP440656   2.787   0.403   2.529  1.8138 -0.7503  1.1239
18134THY    CP340657   2.579   0.393   2.711  0.7879  0.4402  0.3836
18134THY    HP540658   2.512   0.416   2.795  0.2924  1.2235 -3.2660
18134THY    HP640659   2.658   0.332   2.757  1.4841 -1.4941 -0.2462
18134THY    HP740660   2.528   0.338   2.631  1.7792 -1.4726  2.1172
18134THY    CA340661   2.417   0.604   2.558  0.4529 -0.5813 -0.5362
18134THY    HA340662   2.406   0.506   2.511  0.4217 -1.5967 -0.0562
18134THY    CA440663   2.311   0.689   2.549 -0.0399 -0.0040  0.5323
18134THY    HA440664   2.231   0.682   2.475 -0.6642  0.5955  1.1723
18134THY    CA540665   2.324   0.820   2.615  0.4216 -0.2418  0.6584
18134THY    CM140666   2.214   0.926   2.605 -0.0412  0.6384 -0.6673
18134THY    HM140667   2.208   1.000   2.686 -4.1320  0.9832 -1.1513
18134THY    HM240668   2.121   0.869   2.604  0.1247  1.8359 -0.9881
18134THY    HM340669   2.233   0.978   2.510  0.5478  1.7420  1.2337
18134THY    CA640670   2.440   0.848   2.685 -0.3590  0.7924 -0.1101
18134THY    HA640671   2.456   0.948   2.723 -1.5876 -1.3937  0.9865
18135THY      O40672   3.009   1.977   7.654 -0.6790 -0.5399 -0.1036
18135THY     HO40673   2.949   1.954   7.727  0.8214  0.3896 -1.1496
18135THY    CA140674   3.094   1.884   7.640 -0.3976  0.7449  0.3039
18135THY    CA240675   3.217   1.900   7.568  0.1414 -0.1195  0.0439
18135THY    CP140676   3.273   2.031   7.513 -0.1022  0.0955 -0.1170
18135THY    HP140677   3.195   2.107   7.523 -0.4094 -0.1480 -0.3977
18135THY    CP240678   3.307   2.020   7.366 -0.2110  0.0098 -0.4077
18135THY    HP240679   3.407   1.980   7.342  1.1037  1.3961  1.8608
18135THY    HP340680   3.311   2.124   7.332  0.6549 -2.1282 -1.0821
18135THY    HP440681   3.222   1.973   7.316 -0.3140 -0.3361  0.1426
18135THY    CP340682   3.390   2.081   7.597 -0.6019  0.2447  0.8240
18135THY    HP540683   3.466   2.003   7.606 -1.1513 -0.0308  0.2487
18135THY    HP640684   3.348   2.086   7.698  1.6507  1.2558  0.4238
18135THY    HP740685   3.427   2.176   7.556  1.5409 -1.5710 -0.6921
18135THY    CA340686   3.305   1.789   7.555  0.0189  0.2130  0.2355
18135THY    HA340687   3.402   1.801   7.507  0.0340 -0.2252 -1.4298
18135THY    CA440688   3.265   1.666   7.600 -0.3451 -0.9963  0.6950
18135THY    HA440689   3.325   1.576   7.586 -0.6413  0.5788  0.2291
18135THY    CA540690   3.137   1.646   7.656 -0.2921 -0.0832  0.0389
18135THY    CM140691   3.088   1.505   7.697 -0.1516 -0.3410 -0.2778
18135THY    HM140692   3.134   1.483   7.794  1.9612 -0.6350  2.3551
18135THY    HM240693   3.113   1.427   7.624  1.3504  0.5766 -0.6891
18135THY    HM340694   2.981   1.499   7.717  0.0476  0.5435 -1.1121
18135THY    CA640695   3.056   1.759   7.678  0.2766  0.0765  0.4907
18135THY    HA640696   2.955   1.745   7.714 -0.1220 -0.9860  0.5865
18136THY      O40697   3.677   7.640   4.278  0.0950 -0.2844 -0.2849
18136THY     HO40698   3.741   7.614   4.210 -0.3303 -0.1420 -1.7776
18136THY    CA140699   3.573   7.545   4.261  0.4465  0.7426  0.3897
18136THY    CA240700   3.457   7.541   4.347 -0.0189  0.5584  0.6376
18136THY    CP140701   3.444   7.641   4.459 -0.0617  0.1806 -0.5600
18136THY    HP140702   3.532   7.706   4.455 -0.3793  0.5432 -0.1053
18136THY    CP240703   3.465   7.565   4.588  0.6190 -0.5633 -0.2724
18136THY    HP240704   3.566   7.524   4.603  0.6570  2.3664  0.6696
18136THY    HP340705   3.391   7.484   4.586  0.5552 -1.4267 -0.2014
18136THY    HP440706   3.453   7.632   4.673 -0.8092 -0.0918 -1.0652
18136THY    CP340707   3.316   7.726   4.460  0.5590 -0.0278 -0.2483
18136THY    HP540708   3.321   7.786   4.368 -0.9242  1.0868  1.6760
18136THY    HP640709   3.321   7.786   4.551 -1.3809 -1.3311  2.0690
18136THY    HP740710   3.221   7.672   4.456  0.8772  0.0949 -0.8287
18136THY    CA340711   3.348   7.462   4.313 -0.8811  0.2654 -0.9855
18136THY    HA340712   3.258   7.470   4.372 -1.2266 -0.5524  2.3013
18136THY    CA440713   3.352   7.393   4.196  0.1482 -0.0798 -0.5174
18136THY    HA440714   3.267   7.339   4.157  1.1433 -1.8213 -0.9095
18136THY    CA540715   3.461   7.403   4.102 -0.3648  0.4237  0.2190
18136THY    CM140716   3.453   7.334   3.963 -0.0242 -0.2265 -0.2456
18136THY    HM140717   3.345   7.319   3.951 -0.1126  1.0265 -0.7027
18136THY    HM240718   3.507   7.239   3.968  1.0821  1.3006  0.4318
18136THY    HM340719   3.484   7.405   3.885 -0.8395  0.9909  1.5487
18136THY    CA640720   3.567   7.486   4.135 -0.4304  0.3581 -0.0584
18136THY    HA640721   3.638   7.515   4.058 -2.3334 -1.5361 -0.1576
18137THY      O40722   8.060   8.506   1.724  0.7905 -0.0399 -0.1566
18137THY     HO40723   8.038   8.451   1.647 -0.0098 -0.9571  1.3784
18137THY    CA140724   8.187   8.486   1.736 -0.5872 -0.3200  0.5308
18137THY    CA240725   8.278   8.591   1.766  0.7676  0.3559  0.1223
18137THY    CP140726   8.231   8.738   1.789  0.5629  0.0278 -0.7920
18137THY    HP140727   8.127   8.751   1.758  1.1084 -0.5792  3.9352
18137THY    CP240728   8.316   8.832   1.707  0.3189  0.0203 -0.9037
18137THY    HP240729   8.347   8.784   1.614  0.6753 -0.3961  0.1147
18137THY    HP340730   8.410   8.861   1.756 -0.4406  0.1389  1.5776
18137THY    HP440731   8.263   8.926   1.689  1.5541 -1.0107 -0.3814
18137THY    CP340732   8.252   8.762   1.938 -0.7100 -0.3464 -0.1536
18137THY    HP540733   8.357   8.762   1.969 -0.8868  0.5772  2.9582
18137THY    HP640734   8.220   8.677   1.999 -1.5663  1.7316  1.5845
18137THY    HP740735   8.204   8.850   1.982 -0.1093 -0.6448  0.3281
18137THY    CA340736   8.417   8.556   1.772  0.6575  0.6305 -0.1459
18137THY    HA340737   8.486   8.636   1.795 -0.6881 -0.9963  1.5493
18137THY    CA440738   8.460   8.424   1.753  0.1329  0.3312 -0.0624
18137THY    HA440739   8.565   8.407   1.775  0.2802 -0.3863 -0.1199
18137THY    CA540740   8.366   8.324   1.718 -0.2501  0.2073  0.2145
18137THY    CM140741   8.403   8.173   1.710  0.5065  0.0065 -0.5902
18137THY    HM140742   8.315   8.110   1.694  1.2349 -1.3623 -1.3062
18137THY    HM240743   8.461   8.138   1.795 -0.6799  0.9842 -0.2424
18137THY    HM340744   8.477   8.161   1.630 -0.3946 -1.1366  0.9867
18137THY    CA640745   8.233   8.353   1.717  0.1224  0.1302 -0.9482
18137THY    HA640746   8.161   8.276   1.689 -1.0829  0.5327  0.0027
18138THY      O40747   2.042   3.123   6.816  0.1938  0.4197 -0.2562
18138THY     HO40748   2.124   3.166   6.847 -0.0538  1.2571 -0.3724
18138THY    CA140749   2.077   3.004   6.765  0.1589 -0.3902  0.0403
18138THY    CA240750   2.015   2.879   6.814  0.1022 -0.0776  0.0323
18138THY    CP140751   1.904   2.891   6.917  1.0948 -0.0656 -0.1752
18138THY    HP140752   1.839   2.972   6.884  1.5554  1.0913  0.6894
18138THY    CP240753   1.958   2.929   7.061 -0.1984  0.8765  0.1060
18138THY    HP240754   2.023   2.846   7.090  0.2130 -1.1991 -0.3450
18138THY    HP340755   1.876   2.949   7.131  1.7958  3.0696  1.0725
18138THY    HP440756   2.025   3.016   7.062  0.3452 -0.0700 -0.2836
18138THY    CP340757   1.816   2.765   6.939  0.0965 -0.4731 -0.4049
18138THY    HP540758   1.724   2.798   6.988 -0.4938 -0.1394 -2.4313
18138THY    HP640759   1.865   2.681   6.990  0.4261  1.4632  0.8932
18138THY    HP740760   1.782   2.733   6.840 -1.2477  0.0967 -0.7795
18138THY    CA340761   2.070   2.752   6.778 -0.2290 -0.1019 -0.1399
18138THY    HA340762   2.034   2.654   6.808 -0.0519 -0.0721 -0.1962
18138THY    CA440763   2.172   2.753   6.684 -0.1581  0.2541 -0.4581
18138THY    HA440764   2.216   2.657   6.659  0.9623  0.7389 -0.0940
18138THY    CA540765   2.236   2.873   6.642 -0.2503 -0.0429 -0.4391
18138THY    CM140766   2.350   2.874   6.542 -0.1915 -0.5095  0.6041
18138THY    HM140767   2.437   2.917   6.593 -0.5459  0.7364 -0.1112
18138THY    HM240768   2.323   2.917   6.444  1.3956 -1.1649  0.1630
18138THY    HM340769   2.368   2.773   6.506 -1.3809  0.3856  0.0509
18138THY    CA640770   2.180   2.996   6.677  0.3028 -0.4989  0.2216
18138THY    HA640771   2.217   3.087   6.630  2.2292 -0.0289 -0.2777
18139THY      O40772   5.861   2.776   2.867  0.5251  0.1540  0.2135
18139THY     HO40773   5.778   2.816   2.899  0.4496  0.7770 -0.4218
18139THY    CA140774   5.932   2.883   2.829  0.2641  0.7301 -0.2403
18139THY    CA240775   6.065   2.871   2.774  0.9844 -0.0590  0.0649
18139THY    CP140776   6.125   2.733   2.741  0.7037  0.1625  0.5618
18139THY    HP140777   6.078   2.668   2.816  0.2425  1.0819  1.9269
18139THY    CP240778   6.270   2.706   2.750  1.0182  0.0517  0.0112
18139THY    HP240779   6.290   2.598   2.748  0.1699 -0.4524 -0.1441
18139THY    HP340780   6.300   2.744   2.848 -2.8474  1.7648 -0.7995
18139THY    HP440781   6.327   2.747   2.666  1.1211  0.0811 -0.0721
18139THY    CP340782   6.083   2.686   2.600  0.5013  0.3111  0.1892
18139THY    HP540783   6.111   2.745   2.512  0.8682 -0.1336 -0.6352
18139THY    HP640784   5.975   2.667   2.602  0.0095 -0.6605  2.5704
18139THY    HP740785   6.122   2.587   2.575  0.1971  1.8591 -0.3502
18139THY    CA340786   6.136   2.989   2.740 -0.3561 -0.2603  0.1010
18139THY    HA340787   6.231   2.986   2.688 -0.1177  0.1964 -0.8139
18139THY    CA440788   6.071   3.111   2.753  0.1676  0.2805 -0.3830
18139THY    HA440789   6.124   3.206   2.746 -3.1751  2.0164  1.8294
18139THY    CA540790   5.930   3.121   2.786 -0.4911 -0.2166 -0.4761
18139THY    CM140791   5.870   3.252   2.807 -0.2230 -0.0127 -0.5863
18139THY    HM140792   5.760   3.245   2.799 -0.3241  2.2786 -3.3032
18139THY    HM240793   5.908   3.315   2.726  0.8537  1.9809  1.4597
18139THY    HM340794   5.897   3.292   2.905 -0.8048 -0.2634  0.4585
18139THY    CA640795   5.867   3.008   2.838 -0.1787  0.5169  0.3001
18139THY    HA640796   5.762   3.004   2.866 -1.8134 -4.7267 -0.3914
18140THY      O40797   2.537   1.092   6.956  0.1787 -0.2421 -0.2748
18140THY     HO40798   2.628   1.083   6.925 -0.1510 -1.2143 -0.3736
18140THY    CA140799   2.493   0.967   6.963  0.4243  0.3416  0.9611
18140THY    CA240800   2.358   0.946   6.983  0.1503  0.2009 -0.1625
18140THY    CP140801   2.267   1.062   6.949 -0.8271 -0.3551  0.1083
18140THY    HP140802   2.297   1.111   6.855  1.8304  1.4593  2.2607
18140THY    CP240803   2.261   1.168   7.068  0.3172 -0.5307 -0.7161
18140THY    HP240804   2.343   1.182   7.139 -1.5600  1.3342  1.8875
18140THY    HP340805   2.175   1.143   7.132  0.9878  0.8419  0.3588
18140THY    HP440806   2.224   1.261   7.023  0.0026 -2.2028 -1.6053
18140THY    CP340807   2.125   1.015   6.910  0.3107 -0.4309  0.7765
18140THY    HP540808   2.076   0.974   7.000 -0.8180 -1.5189 -0.3311
18140THY    HP640809   2.132   0.931   6.841  0.6596  1.0656 -0.4811
18140THY    HP740810   2.062   1.100   6.881  2.7395 -0.2996  2.7387
18140THY    CA340811   2.314   0.818   7.016  0.1080 -1.0547  0.2627
18140THY    HA340812   2.208   0.799   7.032  0.2390 -0.8931 -0.3512
18140THY    CA440813   2.403   0.709   7.034  0.2224  0.2575 -0.4873
18140THY    HA440814   2.367   0.607   7.040 -0.3445 -1.1076 -0.3810
18140THY    CA540815   2.540   0.736   7.023  0.0189  0.5080  0.6577
18140THY    CM140816   2.631   0.620   7.029  0.8555 -0.2723 -0.3913
18140THY    HM140817   2.588   0.520   7.012  0.3540  1.4074 -0.4786
18140THY    HM240818   2.676   0.606   7.127  0.4118 -0.1400 -0.9354
18140THY    HM340819   2.707   0.626   6.950 -0.2535 -1.3346 -0.0057
18140THY    CA640820   2.585   0.866   6.994  0.1459 -0.2833 -0.0176
18140THY    HA640821   2.692   0.865   6.977  0.1412 -0.3588 -1.3876
18141THY      O40822   3.032   5.284   3.962  0.4791  0.8385  0.1541
18141THY     HO40823   3.083   5.350   3.911  0.4546  0.5280 -0.0638
18141THY    CA140824   2.944   5.347   4.046  0.2237 -0.6049  0.1704
18141THY    CA240825   2.877   5.287   4.156 -0.1261 -0.1172  0.5044
18141THY    CP140826   2.909   5.142   4.186 -0.0725 -0.0215 -0.1057
18141THY    HP140827   2.921   5.083   4.095  2.9975 -0.2524  0.7248
18141THY    CP240828   2.804   5.071   4.272  0.2572 -0.2182  0.3894
18141THY    HP240829   2.702   5.073   4.232 -1.0219  2.7689  1.7223
18141THY    HP340830   2.806   5.111   4.374 -1.7142 -0.4433  1.1638
18141THY    HP440831   2.829   4.966   4.291  0.2967  0.3136  0.4883
18141THY    CP340832   3.049   5.119   4.260 -0.1916  0.0552  0.0742
18141THY    HP540833   3.050   5.176   4.354  1.6038  1.6695 -2.4479
18141THY    HP640834   3.132   5.142   4.193  0.6478  1.1503  0.3110
18141THY    HP740835   3.053   5.013   4.287 -0.7973 -0.1467 -0.0040
18141THY    CA340836   2.791   5.364   4.233  0.1870  0.2220  0.0832
18141THY    HA340837   2.740   5.322   4.319  2.7508  2.5351  1.4163
18141THY    CA440838   2.767   5.495   4.200  0.3257  0.6493 -0.0804
18141THY    HA440839   2.696   5.556   4.255  0.3060  0.0393  0.4523
18141THY    CA540840   2.833   5.561   4.097  0.3672  0.2627  0.2764
18141THY    CM140841   2.819   5.709   4.068  0.3220 -0.0245 -0.3180
18141THY    HM140842   2.801   5.784   4.146 -0.2064 -1.5909  1.2698
18141THY    HM240843   2.744   5.726   3.990  1.5221 -0.8103  1.7682
18141THY    HM340844   2.910   5.742   4.016  0.4370 -0.3127 -1.0635
18141THY    CA640845   2.918   5.482   4.024 -0.0415 -0.1946  0.2078
18141THY    HA640846   2.965   5.528   3.937 -0.1480  1.1078  3.0035
18142THY      O40847   8.040   1.410   7.213  0.6521  0.2951  0.3175
18142THY     HO40848   7.995   1.475   7.270 -2.9774 -1.5012 -0.3321
18142THY    CA140849   7.954   1.310   7.225 -0.5485  0.2220 -0.1644
18142THY    CA240850   7.952   1.201   7.142 -0.5987  0.3346  0.1187
18142THY    CP140851   8.053   1.164   7.039 -0.0825 -0.1670 -0.1896
18142THY    HP140852   8.113   1.255   7.029  0.1597  0.8893 -0.2276
18142THY    CP240853   7.991   1.133   6.901  0.7975 -0.1780 -0.3843
18142THY    HP240854   7.914   1.054   6.902 -0.5663 -0.3499  0.8986
18142THY    HP340855   8.073   1.100   6.836  1.1196  0.5798 -1.1050
18142THY    HP440856   7.944   1.226   6.867  1.5285  0.4941  0.2360
18142THY    CP340857   8.157   1.050   7.080  0.5922  0.3141 -0.0325
18142THY    HP540858   8.155   1.019   7.185 -0.7359  0.7060  1.2307
18142THY    HP640859   8.251   1.065   7.026 -0.0834 -0.4829  1.6084
18142THY    HP740860   8.119   0.958   7.036 -0.8380 -0.1161  0.7334
18142THY    CA340861   7.856   1.099   7.161  0.0400  0.5933  0.1617
18142THY    HA340862   7.846   1.006   7.106 -1.4267 -0.2224  0.7812
18142THY    CA440863   7.768   1.114   7.267 -0.2243  0.0707  0.3515
18142THY    HA440864   7.695   1.036   7.287 -0.9270  0.1756  1.0211
18142THY    CA540865   7.765   1.225   7.350  0.0871  0.0314 -0.4531
18142THY    CM140866   7.670   1.247   7.460 -0.0657  0.1508 -0.0153
18142THY    HM140867   7.621   1.152   7.482 -2.3537  0.7176  1.2309
18142THY    HM240868   7.604   1.327   7.425  1.5881 -0.6690  1.0389
18142THY    HM340869   7.718   1.287   7.551 -0.9865 -0.2053  2.0312
18142THY    CA640870   7.865   1.324   7.331 -0.0666  0.1325 -0.7209
18142THY    HA640871   7.848   1.416   7.386 -1.5477  2.2281 -2.1535
18143THY      O40872   7.975   2.443   6.806  0.5663 -0.2837  0.1523
18143THY     HO40873   8.017   2.462   6.720 -1.5881 -1.5361 -0.4838
18143THY    CA140874   7.868   2.362   6.769  0.3497 -0.0779 -0.4278
18143THY    CA240875   7.744   2.379   6.830 -0.5454  0.9295  0.2916
18143THY    CP140876   7.721   2.491   6.929 -0.2668  0.1282 -0.4347
18143THY    HP140877   7.798   2.566   6.909 -0.9033  3.0722  1.1047
18143THY    CP240878   7.716   2.457   7.078 -0.5111 -0.6483 -0.2110
18143THY    HP240879   7.617   2.438   7.122  0.0664  0.6212 -0.3636
18143THY    HP340880   7.756   2.547   7.127 -1.0964 -1.7387  0.6586
18143THY    HP440881   7.794   2.390   7.117  1.1314  1.6117  2.7448
18143THY    CP340882   7.588   2.571   6.907  0.0936 -0.9137 -0.0516
18143THY    HP540883   7.577   2.653   6.979  2.1685 -0.5801 -0.0059
18143THY    HP640884   7.510   2.494   6.910 -1.0446  0.0184  1.0975
18143THY    HP740885   7.578   2.610   6.806 -1.2172 -2.1162 -3.1432
18143THY    CA340886   7.649   2.274   6.803 -0.4881 -0.5017 -0.3034
18143THY    HA340887   7.557   2.257   6.858 -1.4763 -2.5717 -2.0775
18143THY    CA440888   7.676   2.165   6.714 -0.0212  0.3303  0.9310
18143THY    HA440889   7.601   2.087   6.705 -0.1603  0.2370  1.0745
18143THY    CA540890   7.804   2.155   6.661 -0.0005 -0.1985 -0.1244
18143THY    CM140891   7.856   2.023   6.599 -0.6468  0.0299  0.2315
18143THY    HM140892   7.845   1.943   6.673 -0.9670  0.1703  0.4023
18143THY    HM240893   7.958   2.032   6.559 -1.6632 -2.6830  0.5841
18143THY    HM340894   7.804   2.008   6.504 -1.8264  0.4377  1.5823
18143THY    CA640895   7.898   2.254   6.689  0.6440  0.0643  0.3687
18143THY    HA640896   8.002   2.241   6.661  1.3020  2.0071  1.0242
18144THY      O40897   4.495   1.380   4.734 -0.5939 -0.2323  0.3416
18144THY     HO40898   4.581   1.348   4.765  0.2935 -1.2718  1.6036
18144THY    CA140899   4.468   1.497   4.795  0.2554 -0.2491 -0.1659
18144THY    CA240900   4.359   1.579   4.750  0.5734  0.5551 -0.5917
18144THY    CP140901   4.285   1.553   4.622  0.4259  0.0342 -0.1215
18144THY    HP140902   4.321   1.459   4.579 -0.5074  2.2690 -1.5866
18144THY    CP240903   4.312   1.665   4.521 -0.2803  0.2074  1.1932
18144THY    HP240904   4.265   1.757   4.558  0.2420  1.4356  0.9834
18144THY    HP340905   4.275   1.619   4.428 -1.9198  1.3092  0.1679
18144THY    HP440906   4.415   1.702   4.520  0.1001  2.4212  0.3317
18144THY    CP340907   4.134   1.541   4.651  0.2801 -0.1232  0.0445
18144THY    HP540908   4.131   1.465   4.730 -1.1839  1.5611  1.7439
18144THY    HP640909   4.082   1.510   4.560  0.6752 -1.0819  2.0504
18144THY    HP740910   4.089   1.634   4.688 -0.2855 -0.2019 -0.1965
18144THY    CA340911   4.335   1.700   4.818  0.4145  0.2578 -0.3074
18144THY    HA340912   4.268   1.778   4.781  1.8237  0.2508  0.9475
18144THY    CA440913   4.406   1.728   4.936 -0.7156  0.3331  0.8286
18144THY    HA440914   4.379   1.816   4.995  0.2882  1.1320  0.6307
18144THY    CA540915   4.497   1.635   4.990  0.7171 -0.4118 -0.5307
18144THY    CM140916   4.568   1.670   5.120 -0.7250 -0.5707 -0.1754
18144THY    HM140917   4.660   1.719   5.085 -1.2800 -1.6268  0.1334
18144THY    HM240918   4.600   1.581   5.176 -3.0744  1.5856  0.2306
18144THY    HM340919   4.510   1.740   5.182  0.3332 -0.2521  0.4462
18144THY    CA640920   4.539   1.524   4.910  0.1627  0.0731 -0.5499
18144THY    HA640921   4.604   1.446   4.949 -0.3570 -1.0562 -1.5724
18145THY      O40922   3.026   7.256   1.964  0.3797 -0.1110  0.1204
18145THY     HO40923   2.948   7.265   2.021  0.6110  0.2270  0.0064
18145THY    CA140924   3.050   7.384   1.919  0.0184  0.2107  0.4763
18145THY    CA240925   3.161   7.417   1.843 -0.5116 -0.2667 -0.0515
18145THY    CP140926   3.261   7.308   1.811  0.2558 -0.3485 -0.2114
18145THY    HP140927   3.200   7.219   1.793 -0.5883  2.3634 -0.2641
18145THY    CP240928   3.358   7.292   1.935 -0.7255 -0.2554  0.0893
18145THY    HP240929   3.433   7.220   1.900 -0.5204  0.8681 -0.2462
18145THY    HP340930   3.306   7.253   2.023 -0.5266 -0.7613 -1.3621
18145THY    HP440931   3.400   7.389   1.964  2.9782  0.2560 -1.5239
18145THY    CP340932   3.340   7.334   1.681 -0.0691 -0.2484 -1.2346
18145THY    HP540933   3.281   7.390   1.608  2.1354 -1.1880  0.0010
18145THY    HP640934   3.367   7.236   1.638 -2.4714 -1.2131 -1.5370
18145THY    HP740935   3.422   7.403   1.703 -1.6455 -0.9423  0.9504
18145THY    CA340936   3.185   7.550   1.816  0.7224  0.7569 -0.1319
18145THY    HA340937   3.282   7.582   1.779  0.2576 -0.7309 -0.3303
18145THY    CA440938   3.096   7.645   1.863  0.1968 -0.3834 -0.2991
18145THY    HA440939   3.115   7.750   1.844 -1.6959  1.5586  0.4674
18145THY    CA540940   2.973   7.607   1.921 -0.9893 -0.3161  0.0675
18145THY    CM140941   2.868   7.715   1.938 -0.0944 -0.3057  0.6196
18145THY    HM140942   2.828   7.745   1.840 -1.3611  0.4426  1.4996
18145THY    HM240943   2.897   7.806   1.991  1.0145 -2.3021  1.4906
18145THY    HM340944   2.784   7.666   1.988 -0.0189  0.2227  1.0204
18145THY    CA640945   2.955   7.475   1.950 -0.0769 -0.0084  0.2576
18145THY    HA640946   2.859   7.438   1.984 -0.5020 -1.9510 -0.5407
18146THY      O40947   9.215   2.657   2.467 -0.0992  0.1042 -0.2509
18146THY     HO40948   9.213   2.667   2.370  1.0255  0.1227  0.3440
18146THY    CA140949   9.286   2.543   2.490 -0.1670  0.0635 -0.3484
18146THY    CA240950   9.346   2.513   2.613  0.3875 -0.3581 -0.3809
18146THY    CP140951   9.347   2.610   2.729  0.3056 -0.4685 -0.0184
18146THY    HP140952   9.303   2.702   2.689  1.8816 -1.7953  0.2233
18146THY    CP240953   9.489   2.663   2.767 -0.1315  1.0830 -0.4708
18146THY    HP240954   9.505   2.748   2.700 -4.1128  0.6451  0.0967
18146THY    HP340955   9.574   2.596   2.749  0.5154  1.4137  0.2365
18146THY    HP440956   9.493   2.704   2.869  0.5067  0.3755  1.3265
18146THY    CP340957   9.281   2.557   2.849 -0.1799 -0.3905 -0.7271
18146THY    HP540958   9.323   2.466   2.894 -0.6046  3.7592  0.9114
18146THY    HP640959   9.178   2.528   2.827 -0.4672  1.2254 -1.0473
18146THY    HP740960   9.281   2.626   2.935 -0.1710 -0.0492 -1.1450
18146THY    CA340961   9.416   2.388   2.621 -0.8073  0.5876 -1.0307
18146THY    HA340962   9.467   2.352   2.710  0.4006 -0.3384 -1.6757
18146THY    CA440963   9.421   2.301   2.511 -0.7586 -0.0580  0.2025
18146THY    HA440964   9.488   2.215   2.516 -1.1572  0.3348 -0.0879
18146THY    CA540965   9.371   2.337   2.383  0.1723 -0.4348  0.0528
18146THY    CM140966   9.385   2.246   2.274  0.1124 -0.2045  0.1726
18146THY    HM140967   9.314   2.164   2.289  1.4323  3.2327 -0.4955
18146THY    HM240968   9.490   2.219   2.265  1.1811  0.6568  3.5002
18146THY    HM340969   9.355   2.302   2.184  1.0829  0.1916  1.3632
18146THY    CA640970   9.309   2.457   2.375 -0.3089 -0.2072  0.2354
18146THY    HA640971   9.271   2.488   2.279 -0.0755 -0.3192  0.1744
18147THY      O40972   4.594   8.943   6.822 -0.0421  0.4801 -0.3024
18147THY     HO40973   4.628   8.914   6.736 -0.5673  0.1689 -0.0016
18147THY    CA140974   4.703   8.947   6.911  0.1959  0.1027 -0.0816
18147THY    CA240975   4.681   8.959   7.056  0.4255  0.3318 -0.6194
18147THY    CP140976   4.547   8.978   7.112  0.0037 -0.3175 -0.8155
18147THY    HP140977   4.471   8.970   7.033  0.2509 -0.4133 -2.6574
18147THY    CP240978   4.529   9.123   7.168  1.1459  0.1128 -1.0707
18147THY    HP240979   4.423   9.148   7.173  1.0313 -1.5863 -1.0560
18147THY    HP340980   4.588   9.193   7.107 -0.8837 -0.1870  0.4480
18147THY    HP440981   4.558   9.129   7.273  0.8742  0.2384 -1.8543
18147THY    CP340982   4.503   8.874   7.222  0.3736  0.1345  0.2362
18147THY    HP540983   4.515   8.771   7.186 -2.0363 -0.6161  0.1435
18147THY    HP640984   4.410   8.888   7.279 -0.5314 -0.4740 -2.6054
18147THY    HP740985   4.569   8.875   7.309  0.1774  0.3652 -1.7705
18147THY    CA340986   4.799   8.969   7.136 -0.6035  0.2723 -0.5666
18147THY    HA340987   4.793   8.978   7.244  0.8009  0.4317 -1.2859
18147THY    CA440988   4.925   8.966   7.077  0.5882  0.2205  0.2608
18147THY    HA440989   5.013   8.966   7.140 -0.2947  1.7209 -3.2561
18147THY    CA540990   4.944   8.940   6.942 -0.3911 -0.7302  0.4904
18147THY    CM140991   5.077   8.935   6.888 -0.2392  0.6783 -0.3036
18147THY    HM140992   5.086   9.029   6.832 -0.9899  0.1560 -0.5294
18147THY    HM240993   5.098   8.851   6.822  0.3363  0.8539 -0.2990
18147THY    HM340994   5.154   8.930   6.966 -2.0352  2.5827  0.0860
18147THY    CA640995   4.834   8.934   6.856 -0.1513 -0.3265 -0.2161
18147THY    HA640996   4.847   8.922   6.749 -0.4057 -0.6439  1.9545
18148THY      O40997   6.026   1.963   4.019  0.1743 -0.2971  0.0971
18148THY     HO40998   5.944   1.973   3.968  0.5282 -1.2326 -1.3300
18148THY    CA140999   6.050   1.829   4.023  0.1743 -0.0494 -1.1008
18148THY    CA241000   6.137   1.767   4.103 -0.3848  0.0668 -0.1864
18148THY    CP141001   6.212   1.854   4.203 -0.3680  0.0459 -0.5721
18148THY    HP141002   6.203   1.962   4.191 -0.6050  0.2589 -0.5663
18148THY    CP241003   6.365   1.814   4.206 -0.1394  0.4715 -0.4088
18148THY    HP241004   6.374   1.712   4.243 -2.3996 -2.0354 -1.6495
18148THY    HP341005   6.421   1.870   4.281  0.1859  2.1559 -2.8489
18148THY    HP441006   6.416   1.812   4.109 -0.2435  0.4306 -1.5563
18148THY    CP341007   6.144   1.832   4.336  0.0859  0.1670 -0.2241
18148THY    HP541008   6.187   1.897   4.413 -0.4263 -0.2586  0.6399
18148THY    HP641009   6.155   1.727   4.366 -0.4263  0.6950 -0.1333
18148THY    HP741010   6.038   1.859   4.327  0.8264  0.0653  3.0427
18148THY    CA341011   6.142   1.628   4.101 -0.7668  0.6123  0.4936
18148THY    HA341012   6.210   1.576   4.167  1.6786 -2.7543 -0.9923
18148THY    CA441013   6.072   1.548   4.009 -0.4987  0.0160 -0.2547
18148THY    HA441014   6.073   1.440   4.023  2.9310  0.7861 -0.2596
18148THY    CA541015   5.982   1.621   3.927 -0.7285  0.4927  0.4932
18148THY    CM141016   5.894   1.553   3.833  0.1135  0.2613  0.0762
18148THY    HM141017   5.899   1.580   3.727 -0.1955 -0.6045 -2.9939
18148THY    HM241018   5.792   1.585   3.856 -0.1178 -0.2556 -0.2874
18148THY    HM341019   5.907   1.445   3.823 -0.9204  2.3996 -0.3082
18148THY    CA641020   5.974   1.761   3.937  0.6761  0.5391  0.2419
18148THY    HA641021   5.897   1.808   3.877  0.2726  0.3320 -0.6738
18149THY      O41022   2.674   5.766   3.112 -0.2399 -0.7079 -0.4623
18149THY     HO41023   2.637   5.848   3.151 -4.0411  1.2623 -2.8347
18149THY    CA141024   2.804   5.799   3.089 -0.0798 -0.3877  0.2059
18149THY    CA241025   2.890   5.728   2.996 -0.0035  0.2256 -0.0278
18149THY    CP141026   2.818   5.614   2.924  0.0206  0.0432  0.0295
18149THY    HP141027   2.711   5.634   2.918  0.1689 -0.1084  0.8450
18149THY    CP241028   2.826   5.482   3.004  0.3642 -0.6079  0.4895
18149THY    HP241029   2.762   5.497   3.091 -0.7034 -1.5121  1.3613
18149THY    HP341030   2.924   5.446   3.038  0.2999  2.6061  2.8676
18149THY    HP441031   2.791   5.403   2.937 -0.9487  0.3898  0.1955
18149THY    CP341032   2.867   5.586   2.778  0.2104  0.1487 -0.2144
18149THY    HP541033   2.965   5.536   2.779 -0.4982  0.4869 -1.6453
18149THY    HP641034   2.870   5.676   2.716 -0.6342  0.2209 -0.1342
18149THY    HP741035   2.802   5.514   2.728 -0.6848  0.2355  0.5261
18149THY    CA341036   3.025   5.766   2.970  0.2799 -0.4568  0.1623
18149THY    HA341037   3.079   5.717   2.890  0.1396 -0.8475  0.6386
18149THY    CA441038   3.078   5.872   3.044  0.6592  0.4816 -0.7725
18149THY    HA441039   3.179   5.909   3.026  0.6844 -0.8370 -1.4674
18149THY    CA541040   2.990   5.949   3.129 -0.0965  0.1680 -0.5009
18149THY    CM141041   3.028   6.069   3.201  0.0590 -0.1163 -0.0462
18149THY    HM141042   3.002   6.163   3.152  0.3720  0.7319  0.4892
18149THY    HM241043   3.137   6.080   3.213  0.1889 -1.6281  0.5778
18149THY    HM341044   2.988   6.073   3.303 -1.5705 -0.6805 -0.8645
18149THY    CA641045   2.856   5.915   3.143 -0.5885  0.2550 -0.4224
18149THY    HA641046   2.797   5.979   3.209 -1.8321 -0.5724 -0.6901
18150THY      O41047   7.057   8.997   4.785  0.0297  0.0708 -0.3828
18150THY     HO41048   7.129   9.023   4.725 -0.7737 -1.1867 -0.9944
18150THY    CA141049   7.024   9.112   4.854  0.1533  0.7553 -0.0024
18150THY    CA241050   6.945   9.118   4.970  0.8010  0.2070  0.5671
18150THY    CP141051   6.888   8.984   5.034 -0.2755  0.1550  0.3465
18150THY    HP141052   6.933   8.896   4.986 -2.0607  2.1759 -1.8167
18150THY    CP241053   6.738   8.978   5.008  0.7009  0.3152  0.0262
18150THY    HP241054   6.684   8.925   5.088  0.4948  0.5549  0.5872
18150THY    HP341055   6.711   8.951   4.905 -0.9826  0.3210  1.4594
18150THY    HP441056   6.705   9.079   5.032  0.5425 -0.1637  0.0897
18150THY    CP341057   6.910   8.981   5.185 -0.5668 -0.0495  1.1293
18150THY    HP541058   7.019   8.987   5.193 -0.5916 -0.4574  2.2889
18150THY    HP641059   6.884   8.882   5.224  2.6569 -1.2800 -0.3322
18150THY    HP741060   6.856   9.056   5.242 -0.6989  0.8433  0.3742
18150THY    CA341061   6.932   9.239   5.038 -0.3072 -0.1155  0.0371
18150THY    HA341062   6.869   9.246   5.126 -1.6569 -0.4496 -4.6238
18150THY    CA441063   6.984   9.359   4.978 -0.2912  0.4226  0.4759
18150THY    HA441064   6.967   9.458   5.020  1.0622  0.1287  0.8447
18150THY    CA541065   7.056   9.349   4.864 -0.7699 -0.2294 -0.3737
18150THY    CM141066   7.099   9.485   4.799 -0.9430 -0.3212  0.1304
18150THY    HM141067   7.141   9.460   4.701 -0.5689  0.3989 -2.3313
18150THY    HM241068   7.175   9.529   4.865  2.7346 -2.0273 -3.0792
18150THY    HM341069   7.016   9.556   4.807 -0.9298  0.0686  0.1062
18150THY    CA641070   7.081   9.224   4.806  0.0459 -0.4818 -0.2453
18150THY    HA641071   7.132   9.221   4.710  0.1894 -0.4028 -0.3447
18151THY      O41072   7.223   6.941   2.396 -0.0754  0.3988  0.4652
18151THY     HO41073   7.222   6.851   2.360 -2.5127  1.7269 -0.0996
18151THY    CA141074   7.148   7.001   2.296 -0.0080 -0.0449  0.6845
18151THY    CA241075   7.141   7.140   2.290  0.1682 -0.4738 -0.0683
18151THY    CP141076   7.205   7.227   2.401 -0.2346  0.3077 -0.0078
18151THY    HP141077   7.267   7.164   2.465  0.9965 -2.2578 -1.5940
18151THY    CP241078   7.103   7.293   2.498  0.0509 -0.1478  0.1310
18151THY    HP241079   7.022   7.226   2.530  0.6328  0.6847 -0.1984
18151THY    HP341080   7.064   7.388   2.460 -0.2249 -0.7490 -0.2175
18151THY    HP441081   7.148   7.318   2.595  1.7097 -0.8050 -0.2309
18151THY    CP341082   7.296   7.332   2.344 -0.6662 -0.0323  0.2802
18151THY    HP541083   7.371   7.371   2.415  1.6762 -2.3079  0.1994
18151THY    HP641084   7.252   7.413   2.285  2.7768 -1.1826  1.5091
18151THY    HP741085   7.357   7.288   2.265 -1.2095  0.2165 -0.9654
18151THY    CA341086   7.059   7.199   2.189 -0.6284 -0.2550  0.4303
18151THY    HA341087   7.048   7.307   2.193 -2.1875 -1.3537  0.3447
18151THY    CA441088   6.976   7.120   2.108 -0.5259 -0.1951  0.6257
18151THY    HA441089   6.908   7.172   2.042  0.9394 -1.0305  1.5640
18151THY    CA541090   6.993   6.975   2.109  0.3300  0.3037  0.4274
18151THY    CM141091   6.912   6.882   2.023 -0.8923 -0.3540 -0.1913
18151THY    HM141092   6.826   6.927   1.973 -0.0993 -0.6446  1.0561
18151THY    HM241093   6.863   6.804   2.081  0.5143  0.5644 -0.4348
18151THY    HM341094   6.978   6.829   1.953 -2.0704 -0.5296 -1.4849
18151THY    CA641095   7.076   6.919   2.209 -0.4691 -0.9130  0.3648
18151THY    HA641096   7.073   6.812   2.223  1.9707 -0.8933  0.2556
18152THY      O41097   7.860   6.595   4.738 -0.3855 -0.6904  0.6998
18152THY     HO41098   7.796   6.668   4.746 -2.2587 -1.3238 -0.8065
18152THY    CA141099   7.961   6.658   4.680  0.1927  0.0832 -0.3959
18152THY    CA241100   8.089   6.601   4.667  0.3134 -0.0793  0.0271
18152THY    CP141101   8.122   6.470   4.744 -0.8943 -0.3467  0.2545
18152THY    HP141102   8.052   6.446   4.825 -1.8644 -1.1966  0.1112
18152THY    CP241103   8.255   6.491   4.827 -1.0428  0.0383 -0.5054
18152THY    HP241104   8.290   6.594   4.819 -2.9332  0.9488  0.2457
18152THY    HP341105   8.339   6.425   4.802 -1.0584  1.4193 -1.0885
18152THY    HP441106   8.240   6.482   4.935  0.2639  0.1541 -1.7511
18152THY    CP341107   8.124   6.336   4.661  0.3230  0.2381 -0.3792
18152THY    HP541108   8.189   6.345   4.573  1.5741  1.1277 -0.5313
18152THY    HP641109   8.023   6.324   4.620  0.9808 -1.3120 -0.8924
18152THY    HP741110   8.150   6.249   4.723 -1.8028  0.6526 -0.7689
18152THY    CA341111   8.176   6.666   4.581 -0.0712  0.1824  0.1854
18152THY    HA341112   8.279   6.633   4.577 -0.1410  0.0258 -0.0159
18152THY    CA441113   8.143   6.793   4.525  0.3240  0.5305  0.3491
18152THY    HA441114   8.205   6.842   4.450  1.0822 -0.6179 -2.2315
18152THY    CA541115   8.018   6.848   4.542  0.5070 -0.9157 -0.5009
18152THY    CM141116   7.990   6.983   4.481 -0.0134  0.5881 -0.0426
18152THY    HM141117   7.932   7.040   4.555  0.3163  0.1752  0.8344
18152THY    HM241118   7.942   6.969   4.384 -0.3461  0.8211 -0.5847
18152THY    HM341119   8.088   7.032   4.472 -0.7964  0.1047  1.4858
18152THY    CA641120   7.929   6.782   4.618 -0.0410 -0.4684  0.1145
18152THY    HA641121   7.826   6.816   4.621 -0.2604 -0.7095 -0.5080
18153THY      O41122   4.749   0.696   7.093  0.1324 -0.1940 -0.1487
18153THY     HO41123   4.795   0.656   7.169  1.3387 -1.6503 -1.7145
18153THY    CA141124   4.640   0.623   7.068  0.5681 -0.4027  0.9101
18153THY    CA241125   4.550   0.664   6.968 -0.2625 -0.0326  0.5599
18153THY    CP141126   4.564   0.805   6.908 -0.6594  0.2174  0.3089
18153THY    HP141127   4.643   0.861   6.959 -0.3012 -0.4513  0.4176
18153THY    CP241128   4.444   0.891   6.912 -0.0290 -0.4219 -0.1886
18153THY    HP241129   4.430   0.928   7.015  0.9529 -0.8496  1.4769
18153THY    HP341130   4.351   0.843   6.880 -0.3185 -0.2830  0.2697
18153THY    HP441131   4.453   0.981   6.850  1.9586 -0.8126 -0.6142
18153THY    CP341132   4.611   0.787   6.760  0.0820 -0.1879  0.4772
18153THY    HP541133   4.533   0.734   6.704 -1.4935 -0.3243  2.7858
18153THY    HP641134   4.701   0.725   6.771 -0.9760 -1.0945 -1.2829
18153THY    HP741135   4.632   0.882   6.708 -0.3370 -0.7961  0.2459
18153THY    CA341136   4.448   0.573   6.916 -0.4750 -0.2972 -0.1823
18153THY    HA341137   4.378   0.597   6.837 -0.2029 -0.3971  0.2994
18153THY    CA441138   4.447   0.450   6.972  0.0426  0.3307  0.0459
18153THY    HA441139   4.383   0.373   6.931  0.5037 -0.7159  0.1987
18153THY    CA541140   4.528   0.415   7.086  0.6098 -0.1378  0.0151
18153THY    CM141141   4.524   0.279   7.142  0.5930  0.6965  0.2963
18153THY    HM141142   4.482   0.211   7.067  0.6033 -0.1186  1.1726
18153THY    HM241143   4.475   0.275   7.240  0.7362  0.7851  0.7325
18153THY    HM341144   4.626   0.244   7.162  0.6726  0.6304  0.4949
18153THY    CA641145   4.618   0.504   7.141 -0.6295  0.1090  0.7398
18153THY    HA641146   4.679   0.471   7.225 -2.2500  1.1301  0.2354
18154THY      O41147   4.059   7.229   1.923  0.0917 -1.0043  0.7720
18154THY     HO41148   4.069   7.231   1.826 -0.7005 -1.0843  1.2642
18154THY    CA141149   3.946   7.159   1.946  0.8097  0.1898 -0.4222
18154THY    CA241150   3.882   7.168   2.069 -0.0036 -0.2748 -0.4532
18154THY    CP141151   3.945   7.240   2.188 -0.4597 -0.0329 -0.1835
18154THY    HP141152   3.990   7.329   2.143 -0.6240 -0.7699 -0.4615
18154THY    CP241153   4.054   7.165   2.253 -1.0283 -0.0025  0.2647
18154THY    HP241154   4.027   7.063   2.280 -1.2262  2.1064  0.8196
18154THY    HP341155   4.102   7.215   2.338  0.9564 -1.3758  0.8694
18154THY    HP441156   4.131   7.153   2.176 -0.9346 -0.0286  0.9486
18154THY    CP341157   3.848   7.292   2.292 -0.4561  0.1280 -0.0951
18154THY    HP541158   3.795   7.217   2.352 -1.3213 -0.0885  0.3411
18154THY    HP641159   3.772   7.350   2.239  1.2116 -1.8710  0.3840
18154THY    HP741160   3.908   7.354   2.360 -1.6969  1.0160  0.1561
18154THY    CA341161   3.763   7.091   2.083  0.0187 -0.0143  0.2847
18154THY    HA341162   3.712   7.091   2.179 -1.3160 -0.6796 -0.8127
18154THY    CA441163   3.726   7.002   1.981  0.1560  0.4945 -0.0947
18154THY    HA441164   3.646   6.929   1.989  2.0702  1.1122 -2.2491
18154THY    CA541165   3.788   6.992   1.856  0.5716 -0.7523 -0.1985
18154THY    CM141166   3.737   6.898   1.751  0.4779  0.0952 -0.7108
18154THY    HM141167   3.631   6.911   1.728  0.3397  1.0194 -0.1223
18154THY    HM241168   3.745   6.799   1.798  0.7551  1.5332 -0.0381
18154THY    HM341169   3.797   6.896   1.659  0.4815  0.0961 -0.6624
18154THY    CA641170   3.896   7.076   1.844 -0.0521 -0.3919 -0.6461
18154THY    HA641171   3.945   7.075   1.747  1.5178  0.3656 -0.0651
18155THY      O41172   4.208   7.666   5.392 -0.2624  0.3360  0.3128
18155THY     HO41173   4.118   7.694   5.416  0.4849  1.2075  2.1649
18155THY    CA141174   4.245   7.579   5.489 -0.2712  0.6363  0.0220
18155THY    CA241175   4.356   7.491   5.475  0.1537 -0.1005  0.5352
18155THY    CP141176   4.427   7.485   5.339 -0.4139  0.5102  0.4855
18155THY    HP141177   4.429   7.581   5.285  0.8926  0.7261  0.6032
18155THY    CP241178   4.369   7.379   5.241  0.0994 -0.2661 -0.0569
18155THY    HP241179   4.394   7.274   5.262  2.4869  2.0263  0.8434
18155THY    HP341180   4.400   7.400   5.138  2.2969  0.0934 -1.2438
18155THY    HP441181   4.262   7.399   5.250  0.1369 -0.2139  0.1296
18155THY    CP341182   4.579   7.450   5.357 -0.4529 -0.0072  0.3582
18155THY    HP541183   4.593   7.355   5.410  1.4358  0.5362  0.8965
18155THY    HP641184   4.623   7.528   5.421  0.7380  0.6875 -0.8401
18155THY    HP741185   4.632   7.445   5.261 -1.0492 -0.4005  1.3396
18155THY    CA341186   4.371   7.398   5.584 -0.3575  0.5744  0.0936
18155THY    HA341187   4.449   7.323   5.582  0.1797 -0.7325  0.6628
18155THY    CA441188   4.269   7.392   5.684 -0.0581  0.6491  0.4579
18155THY    HA441189   4.273   7.324   5.769  0.6969 -1.6126 -2.5265
18155THY    CA541190   4.167   7.488   5.699  0.1839 -0.4717  0.3004
18155THY    CM141191   4.065   7.473   5.812 -0.0972 -0.1382 -0.7253
18155THY    HM141192   4.114   7.468   5.910  2.1483 -1.2154 -1.0772
18155THY    HM241193   4.026   7.372   5.794 -2.2296 -1.3742  0.2373
18155THY    HM341194   3.985   7.546   5.799 -1.9163  1.2268 -2.3566
18155THY    CA641195   4.160   7.579   5.596  0.0994  0.2314  0.1358
18155THY    HA641196   4.079   7.650   5.605 -1.7712 -1.3522 -1.6547
18156THY      O41197   5.130   7.049   5.827 -0.5882  0.2612 -0.1687
18156THY     HO41198   5.120   7.048   5.924  1.4751  0.5824  2.2667
18156THY    CA141199   5.162   7.172   5.779 -0.7229  0.3988 -0.1427
18156THY    CA241200   5.134   7.216   5.647 -0.2732 -0.1700  0.1139
18156THY    CP141201   5.067   7.115   5.550 -0.5156  0.5015  0.0715
18156THY    HP141202   5.046   7.018   5.597  1.5237  2.3498  0.4524
18156THY    CP241203   5.164   7.094   5.435 -0.1361 -0.5233 -0.0687
18156THY    HP241204   5.266   7.067   5.464 -0.4235 -0.4985 -1.1642
18156THY    HP341205   5.160   7.183   5.371 -3.5257 -0.4652 -0.0368
18156THY    HP441206   5.114   7.017   5.375  2.2798 -0.3518 -1.8853
18156THY    CP341207   4.930   7.165   5.502 -0.4484 -0.9758  0.0207
18156THY    HP541208   4.856   7.147   5.581  0.5206 -0.6733 -3.2267
18156THY    HP641209   4.908   7.109   5.411 -2.8785  1.6322 -3.7116
18156THY    HP741210   4.932   7.273   5.484 -1.0920  0.5364  0.3186
18156THY    CA341211   5.174   7.346   5.608 -0.8584 -0.4292  0.2191
18156THY    HA341212   5.152   7.388   5.510 -0.9140 -0.0191  1.1820
18156THY    CA441213   5.235   7.429   5.702  0.2051 -0.4263 -0.0211
18156THY    HA441214   5.253   7.533   5.678 -1.0296 -1.1439  0.0388
18156THY    CA541215   5.244   7.386   5.837  0.6857  0.4683 -0.4342
18156THY    CM141216   5.302   7.468   5.940  0.3604 -0.3764 -0.1972
18156THY    HM141217   5.407   7.437   5.941  0.5018  1.5355  0.2416
18156THY    HM241218   5.253   7.451   6.037 -0.3566 -0.1689  2.5157
18156THY    HM341219   5.306   7.577   5.934 -1.4258 -0.2941 -0.0993
18156THY    CA641220   5.212   7.259   5.874 -0.4986 -0.9683  0.3763
18156THY    HA641221   5.232   7.227   5.976 -0.0483 -1.1261  0.1450
18157THY      O41222   1.252   2.482   6.505  0.2203  0.0184  0.3454
18157THY     HO41223   1.336   2.435   6.516  1.0315 -1.5767  1.3111
18157THY    CA141224   1.276   2.612   6.538 -0.4884 -0.3741 -0.5489
18157THY    CA241225   1.182   2.699   6.615  0.2092  0.2283  0.6463
18157THY    CP141226   1.041   2.648   6.651 -0.1831  0.2459 -0.2748
18157THY    HP141227   1.059   2.550   6.697 -1.6415  0.1591 -0.6031
18157THY    CP241228   0.957   2.617   6.522 -0.0770 -0.4606  0.3295
18157THY    HP241229   1.025   2.564   6.454 -0.7205 -0.7666 -0.1198
18157THY    HP341230   0.917   2.711   6.481  0.4195 -0.3282  0.6033
18157THY    HP441231   0.873   2.555   6.554  0.4567  0.7915  0.2329
18157THY    CP341232   0.956   2.747   6.739 -0.7591 -0.5859  0.6359
18157THY    HP541233   0.860   2.693   6.747 -0.5153 -0.3462  0.2334
18157THY    HP641234   0.934   2.845   6.695 -2.5331 -1.2207 -0.0038
18157THY    HP741235   0.996   2.754   6.841  0.5925 -0.9297 -1.3651
18157THY    CA341236   1.229   2.814   6.661  0.0079  0.0074 -1.2345
18157THY    HA341237   1.159   2.885   6.705 -0.3661 -4.8558  1.9206
18157THY    CA441238   1.361   2.861   6.632  0.3003  0.0837  0.8534
18157THY    HA441239   1.390   2.957   6.674  0.0435 -0.6715  1.2648
18157THY    CA541240   1.445   2.785   6.550  0.6051 -0.1451 -0.4398
18157THY    CM141241   1.584   2.837   6.519 -0.0392  0.3406 -0.2307
18157THY    HM141242   1.576   2.942   6.487 -0.4747  1.1700 -0.0041
18157THY    HM241243   1.626   2.792   6.428  0.0920 -0.2794  1.0924
18157THY    HM341244   1.655   2.819   6.600  0.1357  0.1749 -0.2840
18157THY    CA641245   1.400   2.661   6.504 -0.6248 -0.1503 -0.2588
18157THY    HA641246   1.476   2.604   6.452  0.3131  0.3807  0.4908
18158THY      O41247   3.128   3.499   2.269  0.5797 -0.0387  0.1699
18158THY     HO41248   3.071   3.543   2.334 -2.6355 -2.7466  0.3822
18158THY    CA141249   3.250   3.545   2.295 -0.0177  0.4154  0.5481
18158THY    CA241250   3.342   3.578   2.198 -0.0825  0.6788 -0.1472
18158THY    CP141251   3.303   3.562   2.053  0.0942  0.1934  1.4322
18158THY    HP141252   3.199   3.534   2.032  0.5283 -0.7284  0.4416
18158THY    CP241253   3.377   3.445   1.976 -0.1027 -0.8649 -0.2162
18158THY    HP241254   3.354   3.430   1.870  2.0207 -1.3370 -0.4800
18158THY    HP341255   3.353   3.347   2.021 -1.9471  0.9607  0.9983
18158THY    HP441256   3.485   3.453   1.994 -0.4256  0.2045  2.9657
18158THY    CP341257   3.321   3.693   1.976 -0.6932 -0.2483 -0.2875
18158THY    HP541258   3.253   3.775   2.004 -0.0189 -1.1157  0.5895
18158THY    HP641259   3.300   3.678   1.870  0.3582 -0.3117 -1.3719
18158THY    HP741260   3.422   3.732   1.986 -1.2823  0.2828  1.1693
18158THY    CA341261   3.475   3.608   2.238  0.8238  0.4184  0.3384
18158THY    HA341262   3.545   3.626   2.157 -1.8517 -2.5114 -1.3848
18158THY    CA441263   3.510   3.620   2.371  0.0806  0.4893  0.3998
18158THY    HA441264   3.608   3.659   2.396 -0.5227  0.0699  2.2809
18158THY    CA541265   3.414   3.591   2.470  0.5553  0.2162  0.0683
18158THY    CM141266   3.440   3.627   2.615  0.3742  0.2748 -0.0363
18158THY    HM141267   3.418   3.733   2.632  0.6500 -0.6091  0.1676
18158THY    HM241268   3.543   3.622   2.652 -0.8027  4.2165  0.6340
18158THY    HM341269   3.371   3.565   2.673 -0.2739  1.4416  1.6682
18158THY    CA641270   3.287   3.546   2.435  0.0165 -0.1895  0.0549
18158THY    HA641271   3.223   3.522   2.520  1.5615  1.2599  0.8456
18159THY      O41272   4.979   5.237   4.186 -0.1798  0.4392 -0.3672
18159THY     HO41273   5.036   5.316   4.196  0.8843 -1.5928 -0.8157
18159THY    CA141274   5.029   5.178   4.074 -0.7425 -0.0766 -0.5088
18159THY    CA241275   4.946   5.145   3.963 -0.1391  0.6962 -0.3228
18159THY    CP141276   4.810   5.213   3.964  0.0131 -0.8174  1.0887
18159THY    HP141277   4.812   5.300   4.032  2.6095  1.1972 -0.3911
18159THY    CP241278   4.701   5.116   4.018  0.2707 -0.1270 -0.6595
18159THY    HP241279   4.611   5.178   4.030 -0.8128  0.8529 -2.3608
18159THY    HP341280   4.727   5.089   4.121 -0.8072 -0.1494 -1.8482
18159THY    HP441281   4.684   5.024   3.961 -1.1964  1.3771 -1.3688
18159THY    CP341282   4.763   5.259   3.832  0.0245  0.5868  0.2828
18159THY    HP541283   4.753   5.177   3.760 -0.0991 -0.8685  1.5093
18159THY    HP641284   4.822   5.339   3.784  2.3511 -0.6426 -2.0081
18159THY    HP741285   4.663   5.300   3.849 -1.3503 -3.0864 -1.1386
18159THY    CA341286   4.999   5.084   3.849  0.0657 -0.0425  0.6518
18159THY    HA341287   4.944   5.065   3.757  0.8542 -0.5810  0.9448
18159THY    CA441288   5.137   5.059   3.849 -0.0673 -0.4032 -0.4771
18159THY    HA441289   5.187   5.019   3.762 -0.1780 -1.4243  1.4852
18159THY    CA541290   5.219   5.096   3.954  0.4265 -0.3648  0.5405
18159THY    CM141291   5.361   5.057   3.941 -0.1478 -0.1650 -0.3898
18159THY    HM141292   5.394   4.995   4.025 -1.2203 -0.0598 -0.8331
18159THY    HM241293   5.413   5.152   3.955  0.6125  0.2051 -0.8490
18159THY    HM341294   5.393   5.011   3.847 -0.5941  0.5409 -2.2352
18159THY    CA641295   5.170   5.159   4.071  0.6570  0.2424  0.1546
18159THY    HA641296   5.241   5.181   4.151  0.2021  0.4840  0.7909
18160THY      O41297   5.320   3.798   2.994  0.2110  0.2616 -0.2736
18160THY     HO41298   5.266   3.779   3.074 -0.3848 -0.5084 -2.0806
18160THY    CA141299   5.447   3.804   3.040 -0.0852 -0.9948  0.1803
18160THY    CA241300   5.522   3.922   3.039 -0.1026 -0.1223 -0.1236
18160THY    CP141301   5.475   4.052   2.973  0.0860  0.5105  0.6446
18160THY    HP141302   5.373   4.037   2.935 -1.0616  2.9817  1.6757
18160THY    CP241303   5.567   4.094   2.853 -0.2273  0.3857  0.5900
18160THY    HP241304   5.665   4.129   2.885  0.2568 -0.3517 -0.0478
18160THY    HP341305   5.519   4.174   2.795 -3.0606  2.2742  0.4402
18160THY    HP441306   5.586   4.007   2.790  1.4663 -1.0635  1.9298
18160THY    CP341307   5.456   4.172   3.067 -0.0777  0.1250 -0.0222
18160THY    HP541308   5.556   4.203   3.099 -1.0090  2.6099  0.6176
18160THY    HP641309   5.392   4.149   3.152 -1.1527 -0.3953  0.9514
18160THY    HP741310   5.409   4.253   3.010  0.9581 -1.2542 -0.3415
18160THY    CA341311   5.651   3.921   3.086  0.5804 -0.1105 -1.0148
18160THY    HA341312   5.711   4.012   3.083 -2.0999  0.2177  0.8909
18160THY    CA441313   5.710   3.796   3.124  0.5705  0.2317 -0.3560
18160THY    HA441314   5.812   3.801   3.160 -0.0741  1.9708  2.8092
18160THY    CA541315   5.639   3.678   3.126 -0.0247  0.2881  0.0886
18160THY    CM141316   5.701   3.548   3.159  0.7107  0.9195 -0.6964
18160THY    HM141317   5.732   3.497   3.068 -2.5808 -0.5158 -0.3867
18160THY    HM241318   5.624   3.492   3.213  0.2239 -0.6368 -1.5654
18160THY    HM341319   5.795   3.555   3.216  0.6881  1.1129 -1.8451
18160THY    CA641320   5.501   3.687   3.095  0.1262 -0.2320 -0.0861
18160THY    HA641321   5.439   3.598   3.094  0.6912  0.4093 -0.4963
18161THY      O41322   7.860   4.185   6.659  0.3597  0.0254  0.3206
18161THY     HO41323   7.900   4.150   6.577  1.4881  0.2737  0.9802
18161THY    CA141324   7.927   4.302   6.667  0.5273 -0.2145  0.4246
18161THY    CA241325   7.921   4.383   6.773 -0.9961 -0.0892 -0.0156
18161THY    CP141326   7.823   4.349   6.883 -0.3118 -0.2496  0.9837
18161THY    HP141327   7.738   4.288   6.849  0.1276  1.1070 -0.4458
18161THY    CP241328   7.769   4.471   6.956  0.3524 -0.0714 -0.1765
18161THY    HP241329   7.745   4.552   6.885 -0.0723 -0.2385 -0.4457
18161THY    HP341330   7.840   4.505   7.032  0.2187  1.1740 -2.4817
18161THY    HP441331   7.676   4.433   6.998  0.7833 -0.0641 -1.2570
18161THY    CP341332   7.892   4.255   6.986  0.5884 -0.5349  0.2039
18161THY    HP541333   7.925   4.168   6.927 -1.4468 -1.7184  0.1571
18161THY    HP641334   7.825   4.218   7.065  1.0102 -1.3549 -2.5661
18161THY    HP741335   7.978   4.309   7.027 -0.6339 -0.9891  2.6317
18161THY    CA341336   8.010   4.490   6.791  0.1513  0.1405 -0.0392
18161THY    HA341337   7.996   4.553   6.878 -1.6069  2.7849 -3.7019
18161THY    CA441338   8.090   4.520   6.676 -0.4423 -0.5830  0.0838
18161THY    HA441339   8.153   4.609   6.674  2.0012 -0.6979 -1.5640
18161THY    CA541340   8.094   4.438   6.558  0.1883  0.2640 -0.2384
18161THY    CM141341   8.179   4.463   6.432 -0.2257  0.0591  0.4254
18161THY    HM141342   8.169   4.382   6.359  1.8486  1.3399 -1.0729
18161THY    HM241343   8.288   4.462   6.449  0.5267 -3.9157  0.3137
18161THY    HM341344   8.151   4.555   6.379  0.0932  0.3142  0.6772
18161THY    CA641345   8.015   4.320   6.559 -0.1158  0.2752  0.4657
18161THY    HA641346   8.014   4.255   6.472  0.9432 -0.2703  1.1528
18162THY      O41347   3.979   1.900   5.352 -0.3264  0.9290 -0.0044
18162THY     HO41348   3.884   1.899   5.334 -0.5089  0.9489  3.5579
18162THY    CA141349   4.042   1.926   5.236  0.4972  0.2016  0.5255
18162THY    CA241350   4.161   2.002   5.238  0.1137  0.3888  0.1322
18162THY    CP141351   4.231   2.034   5.365  0.0916 -0.3318  0.6291
18162THY    HP141352   4.168   2.023   5.454 -1.9254 -1.6701  0.8140
18162THY    CP241353   4.279   2.183   5.374 -0.0562 -0.5785 -0.0119
18162THY    HP241354   4.344   2.198   5.461  2.1411 -1.6259 -2.6696
18162THY    HP341355   4.190   2.244   5.389 -1.3081 -1.0076 -1.6679
18162THY    HP441356   4.327   2.224   5.284 -0.8513 -0.4824  1.1911
18162THY    CP341357   4.367   1.956   5.373  0.2066  0.2453 -0.3476
18162THY    HP541358   4.453   1.976   5.308 -1.2070 -1.7302 -0.3989
18162THY    HP641359   4.344   1.850   5.390 -0.8635  1.5415  0.0627
18162THY    HP741360   4.400   1.977   5.476 -0.6234  0.4036  0.2376
18162THY    CA341361   4.211   2.048   5.115  0.2880 -0.1537 -0.2342
18162THY    HA341362   4.303   2.106   5.108 -0.3352  1.7974  1.1139
18162THY    CA441363   4.146   2.014   4.992  0.2998  0.1260  0.1558
18162THY    HA441364   4.192   2.032   4.896  2.7337  0.6557 -2.5556
18162THY    CA541365   4.025   1.939   4.996  0.1479  0.4954 -0.5871
18162THY    CM141366   3.953   1.914   4.869  0.8542 -0.0898  0.3265
18162THY    HM141367   3.846   1.920   4.889  0.6632 -0.6495 -0.8326
18162THY    HM241368   3.951   1.809   4.837 -2.6253 -1.3913  0.6508
18162THY    HM341369   3.991   1.969   4.782  3.0285  0.6531  0.1239
18162THY    CA641370   3.969   1.899   5.117  0.3215 -0.0015 -0.0177
18162THY    HA641371   3.880   1.837   5.115  0.2055 -2.5636  0.1295
18163THY      O41372   6.841   3.069   3.320 -0.2258 -0.0452  0.2293
18163THY     HO41373   6.840   2.978   3.354 -1.1218  0.3734  0.3838
18163THY    CA141374   6.914   3.142   3.407 -0.0012 -0.0129  0.4782
18163THY    CA241375   6.993   3.247   3.364  0.1726  0.7286  0.7365
18163THY    CP141376   6.998   3.276   3.217  0.0557 -0.0801 -0.5105
18163THY    HP141377   6.908   3.242   3.164  0.9587 -1.1303 -1.3165
18163THY    CP241378   7.113   3.205   3.156 -0.7480  0.1227 -0.2987
18163THY    HP241379   7.207   3.251   3.189 -0.8549 -1.8168  1.4409
18163THY    HP341380   7.108   3.215   3.047 -0.8114  0.3098  2.4262
18163THY    HP441381   7.115   3.103   3.196 -1.4061 -1.1038 -0.8124
18163THY    CP341382   7.017   3.424   3.184 -0.0288  0.2984 -0.5446
18163THY    HP541383   6.934   3.485   3.222  0.2004  1.5082 -0.9697
18163THY    HP641384   7.018   3.438   3.075 -0.5040  0.2938 -0.5294
18163THY    HP741385   7.108   3.465   3.228  0.7515  0.0728 -1.9834
18163THY    CA341386   7.079   3.307   3.461  0.6878  0.4394  0.2563
18163THY    HA341387   7.153   3.380   3.428  2.4339  2.9289 -0.2654
18163THY    CA441388   7.067   3.276   3.597  0.4681  0.7434  0.2099
18163THY    HA441389   7.123   3.333   3.670  2.6922  0.2502 -1.2278
18163THY    CA541390   6.968   3.182   3.633  0.1409 -0.3954 -0.2997
18163THY    CM141391   6.932   3.167   3.777 -0.2168 -0.4426 -0.2011
18163THY    HM141392   7.023   3.166   3.837  1.3584 -2.7010  0.0061
18163THY    HM241393   6.861   3.083   3.786 -2.4359 -1.3602  1.4689
18163THY    HM341394   6.875   3.254   3.811 -1.1174 -1.4547 -0.3825
18163THY    CA641395   6.899   3.111   3.540 -0.7151 -0.3123  0.0069
18163THY    HA641396   6.839   3.031   3.583 -0.7849  1.3210  0.8842
18164THY      O41397   7.349   4.291   3.141  0.1150 -0.3947  0.6910
18164THY     HO41398   7.365   4.204   3.184  0.8775  1.2814  1.6086
18164THY    CA141399   7.323   4.269   3.011  0.0070 -0.1676  0.1053
18164THY    CA241400   7.253   4.368   2.943  0.8496 -0.6039  0.0206
18164THY    CP141401   7.188   4.491   3.015 -0.3662  0.0756 -0.7024
18164THY    HP141402   7.236   4.519   3.110  2.4313 -1.8709  1.8397
18164THY    CP241403   7.039   4.460   3.039 -0.4716  0.4266 -0.1192
18164THY    HP241404   6.997   4.550   3.087  0.1782 -1.6571  1.3629
18164THY    HP341405   7.039   4.372   3.104  1.3713 -0.2824 -0.6774
18164THY    HP441406   6.975   4.454   2.950 -0.1658 -0.1766  3.2417
18164THY    CP341407   7.200   4.623   2.925 -0.2799 -0.1258  0.1607
18164THY    HP541408   7.120   4.629   2.850 -0.3572 -0.1352 -0.8838
18164THY    HP641409   7.301   4.637   2.886  0.1219  0.6933 -0.3947
18164THY    HP741410   7.182   4.715   2.982  1.2828  0.3328  0.2109
18164THY    CA341411   7.221   4.348   2.805  0.1243 -0.1398  1.5457
18164THY    HA341412   7.162   4.418   2.747  1.7040 -0.3707  2.7351
18164THY    CA441413   7.268   4.230   2.737  0.4365  0.2433 -0.6735
18164THY    HA441414   7.230   4.208   2.638  1.8887 -1.1245  2.3635
18164THY    CA541415   7.342   4.134   2.809  0.4316  0.0612  0.4594
18164THY    CM141416   7.395   4.010   2.742  0.0771 -0.3285 -0.2899
18164THY    HM141417   7.326   3.936   2.785 -0.8104 -2.8957 -1.0694
18164THY    HM241418   7.500   4.003   2.774 -0.4660  1.4707 -0.8440
18164THY    HM341419   7.386   4.012   2.633 -1.6200 -0.2002  1.5082
18164THY    CA641420   7.373   4.156   2.945  0.2064 -0.0081 -0.5573
18164THY    HA641421   7.427   4.080   3.001 -0.0307  1.8230  0.5716
18165THY      O41422   4.302   4.590   5.157 -0.4828 -0.1253  0.0747
18165THY     HO41423   4.236   4.525   5.128  1.3411 -0.1025 -1.8982
18165THY    CA141424   4.387   4.592   5.053  0.2185 -0.0495 -0.0778
18165THY    CA241425   4.476   4.699   5.025  0.4565  1.0824  0.4764
18165THY    CP141426   4.475   4.815   5.118 -0.7615 -0.2998 -0.7398
18165THY    HP141427   4.432   4.793   5.216  0.7240  0.2125 -1.5211
18165THY    CP241428   4.406   4.944   5.065 -0.7604 -0.2427 -0.3893
18165THY    HP241429   4.424   4.971   4.960 -2.7425 -0.2123  1.3221
18165THY    HP341430   4.430   5.033   5.124 -1.3117 -1.3829  0.5419
18165THY    HP441431   4.298   4.930   5.079 -0.5771 -0.1498 -1.8084
18165THY    CP341432   4.616   4.854   5.158 -0.9736 -0.2018 -0.0471
18165THY    HP541433   4.692   4.865   5.079  2.0009  2.2815 -1.1855
18165THY    HP641434   4.655   4.775   5.222  0.7773 -1.0976  0.0444
18165THY    HP741435   4.619   4.947   5.216 -2.4697  0.7763 -0.5701
18165THY    CA341436   4.544   4.692   4.903  0.4947  0.1822  0.4582
18165THY    HA341437   4.602   4.779   4.872  1.4188 -0.6036 -0.4136
18165THY    CA441438   4.547   4.577   4.820  0.1033 -0.2472  0.1338
18165THY    HA441439   4.620   4.570   4.740  0.3051 -0.0437 -0.1157
18165THY    CA541440   4.461   4.471   4.854 -0.3563 -0.2425 -0.6642
18165THY    CM141441   4.459   4.340   4.784 -0.3877  0.0329  0.8810
18165THY    HM141442   4.359   4.296   4.784  0.0962  1.4518 -0.3249
18165THY    HM241443   4.521   4.261   4.827 -0.6616 -2.0493 -0.5353
18165THY    HM341444   4.479   4.348   4.677  0.9057  0.2058  0.3073
18165THY    CA641445   4.378   4.486   4.963  0.4414 -0.4884 -0.4261
18165THY    HA641446   4.319   4.396   4.984  2.2451 -1.9245 -2.0267
18166THY      O41447   7.935   4.022   6.432  0.2802  0.4500  0.2218
18166THY     HO41448   8.002   3.973   6.484 -0.1778  0.1068 -0.7920
18166THY    CA141449   7.912   3.952   6.328  0.0695 -0.1238  0.0068
18166THY    CA241450   7.832   3.996   6.226  0.9113 -0.5522 -0.1156
18166THY    CP141451   7.755   4.128   6.244 -0.1482 -0.1291  0.0372
18166THY    HP141452   7.751   4.151   6.351 -2.1222  0.1456 -1.2869
18166THY    CP241453   7.611   4.120   6.204  0.4498 -0.3274  0.3144
18166THY    HP241454   7.601   4.116   6.095  1.1435 -0.3923  0.1133
18166THY    HP341455   7.560   4.213   6.231  0.5837  0.9456  0.0289
18166THY    HP441456   7.575   4.027   6.250  0.4779 -0.5030  0.2156
18166THY    CP341457   7.822   4.236   6.163 -0.2070 -0.0588  0.0931
18166THY    HP541458   7.829   4.199   6.061 -0.5175 -0.1855  0.3823
18166THY    HP641459   7.919   4.245   6.215 -1.8584  3.1290  1.1953
18166THY    HP741460   7.780   4.335   6.184  0.6398  1.1913  0.2253
18166THY    CA341461   7.806   3.920   6.111 -0.1441 -0.8678 -0.0738
18166THY    HA341462   7.736   3.954   6.035  1.6544 -2.6288 -0.1779
18166THY    CA441463   7.871   3.801   6.100 -0.8208 -0.4874  0.3743
18166THY    HA441464   7.862   3.738   6.012  3.2183  0.1831 -1.4595
18166THY    CA541465   7.955   3.754   6.203  0.2601  0.2691 -0.0767
18166THY    CM141466   8.034   3.627   6.193 -0.7833 -0.4087  0.8769
18166THY    HM141467   8.128   3.619   6.248 -1.7768  1.1179 -1.1285
18166THY    HM241468   8.055   3.618   6.085 -0.1005 -0.2343  0.3055
18166THY    HM341469   7.978   3.539   6.228 -0.7491 -1.6883  0.3211
18166THY    CA641470   7.975   3.831   6.317 -0.6606  0.5113 -0.5152
18166THY    HA641471   8.039   3.798   6.398  1.9555 -1.1985  0.1238
18167THY      O41472   9.003   7.244   3.362 -1.0035  0.1090  0.2788
18167THY     HO41473   8.978   7.338   3.365  0.5771  0.6342  0.7131
18167THY    CA141474   9.137   7.236   3.382  0.4244 -0.1136 -0.2989
18167THY    CA241475   9.205   7.115   3.391 -0.1244  0.1535  0.4233
18167THY    CP141476   9.127   6.980   3.396  0.0173  0.2526  0.9228
18167THY    HP141477   9.032   6.988   3.342  0.1180 -0.5292 -2.0768
18167THY    CP241478   9.092   6.934   3.539 -0.2830  0.2542 -0.3776
18167THY    HP241479   9.032   7.007   3.595 -2.1450 -1.2222 -0.6801
18167THY    HP341480   9.182   6.912   3.597 -1.7988  2.0777 -2.2051
18167THY    HP441481   9.034   6.842   3.527 -0.3147 -1.3087 -0.1727
18167THY    CP341482   9.199   6.861   3.321  0.1393 -0.3341 -0.5544
18167THY    HP541483   9.206   6.888   3.215 -1.3308 -0.6901 -1.4735
18167THY    HP641484   9.134   6.773   3.322  1.4141 -1.9361 -1.5641
18167THY    HP741485   9.298   6.842   3.363  0.4369 -0.9752 -0.4426
18167THY    CA341486   9.342   7.113   3.398  0.4810 -0.2131 -0.0782
18167THY    HA341487   9.400   7.022   3.397  1.4306 -2.1161  0.4826
18167THY    CA441488   9.407   7.238   3.407 -0.2929 -0.8106 -0.4360
18167THY    HA441489   9.515   7.241   3.414 -0.3940  0.6938  0.3923
18167THY    CA541490   9.333   7.355   3.412 -0.0491  0.1836 -0.0176
18167THY    CM141491   9.397   7.485   3.431  0.1162  0.7202 -0.4414
18167THY    HM141492   9.322   7.564   3.417 -1.5127  0.2196 -1.9892
18167THY    HM241493   9.474   7.496   3.354 -0.6678 -0.1092 -0.6466
18167THY    HM341494   9.435   7.496   3.533  0.9313  0.1862  2.4653
18167THY    CA641495   9.198   7.354   3.396 -0.0286 -0.7215  1.0708
18167THY    HA641496   9.135   7.442   3.386  0.7649  3.6985  2.4118
18168THY      O41497   6.497   9.007   6.713  0.3223  0.4946 -0.0273
18168THY     HO41498   6.524   9.099   6.698 -0.1645  0.0216  0.0456
18168THY    CA141499   6.489   8.986   6.848  0.3334  0.4044  0.6584
18168THY    CA241500   6.473   8.852   6.897  0.4655 -0.6325  0.3510
18168THY    CP141501   6.484   8.732   6.801 -0.5935  0.1426 -0.0079
18168THY    HP141502   6.419   8.755   6.715 -0.7492  0.0018 -0.9321
18168THY    CP241503   6.441   8.595   6.864 -1.0256 -0.0345 -0.4269
18168THY    HP241504   6.514   8.571   6.942  1.1935 -0.8499  3.0179
18168THY    HP341505   6.442   8.516   6.788 -1.8765 -0.0662 -0.4168
18168THY    HP441506   6.340   8.611   6.905  0.9670  4.8806  1.7412
18168THY    CP341507   6.626   8.718   6.740 -0.4761 -0.1362 -0.3298
18168THY    HP541508   6.617   8.648   6.657 -0.3725  0.5178 -1.1317
18168THY    HP641509   6.701   8.678   6.809 -0.6680 -0.1755 -0.7672
18168THY    HP741510   6.681   8.803   6.698  1.0465 -2.1784 -2.2176
18168THY    CA341511   6.448   8.834   7.042 -0.3243  0.6542  0.4577
18168THY    HA341512   6.442   8.736   7.088 -2.0173 -1.2187 -0.3959
18168THY    CA441513   6.446   8.945   7.125 -0.1017 -0.1182 -0.1754
18168THY    HA441514   6.446   8.928   7.232  1.2789 -0.0762 -0.0097
18168THY    CA541515   6.475   9.073   7.073  0.1163  0.5003 -0.1739
18168THY    CM141516   6.482   9.181   7.183  0.2531 -0.1616 -0.0870
18168THY    HM141517   6.525   9.146   7.277  2.9236 -1.2242  0.1580
18168THY    HM241518   6.386   9.233   7.197 -0.2788  0.7151 -1.2710
18168THY    HM341519   6.553   9.255   7.144  0.5225 -0.2754 -0.4083
18168THY    CA641520   6.487   9.093   6.936 -0.3691 -0.1787 -1.1847
18168THY    HA641521   6.491   9.197   6.907 -1.7587 -1.1642 -1.3791
18169THY      O41522   3.019   4.130   5.735 -0.3940  0.3025  0.2177
18169THY     HO41523   2.987   4.207   5.684  0.3803 -0.0008  0.3485
18169THY    CA141524   2.926   4.094   5.824  0.2281  0.3229 -0.3254
18169THY    CA241525   2.936   3.986   5.914  0.2079 -0.3315  0.1300
18169THY    CP141526   3.071   3.910   5.911 -0.0461  0.0420 -0.1322
18169THY    HP141527   3.137   3.945   5.831 -0.0244  0.5214  0.9780
18169THY    CP241528   3.062   3.761   5.879 -0.1833 -0.5501 -0.0124
18169THY    HP241529   3.014   3.750   5.780  0.1342 -0.9409  1.8461
18169THY    HP341530   3.003   3.708   5.954  3.1103  1.9308 -0.4693
18169THY    HP441531   3.163   3.721   5.890 -0.0485 -2.0495 -0.1477
18169THY    CP341532   3.142   3.934   6.041  0.8335  0.2464 -0.4381
18169THY    HP541533   3.082   3.885   6.119  0.7830  0.2036 -0.4441
18169THY    HP641534   3.141   4.039   6.072  0.9648 -1.0976 -0.0296
18169THY    HP741535   3.247   3.901   6.046  0.5929  0.5682 -1.1988
18169THY    CA341536   2.829   3.948   6.005 -0.3295  0.2496 -0.0921
18169THY    HA341537   2.836   3.865   6.074 -1.6239  0.3148 -0.1758
18169THY    CA441538   2.717   4.028   6.005 -0.2640  0.4143 -0.8584
18169THY    HA441539   2.630   3.999   6.063  0.2343  0.5633 -2.1037
18169THY    CA541540   2.698   4.132   5.908 -0.5672  0.2535  0.1829
18169THY    CM141541   2.559   4.202   5.895 -0.1175  0.0141 -0.0158
18169THY    HM141542   2.523   4.169   5.797 -0.4806 -0.6351  2.1264
18169THY    HM241543   2.563   4.312   5.889 -0.2594 -0.2626 -0.0250
18169THY    HM341544   2.485   4.169   5.969 -0.3418 -0.6643 -1.0739
18169THY    CA641545   2.808   4.166   5.826  0.3846  0.4353  0.5170
18169THY    HA641546   2.786   4.242   5.751 -0.8555 -1.3936 -1.4966
18170THY      O41547   3.739   7.957   4.019  0.3020  0.0068 -0.6710
18170THY     HO41548   3.729   7.926   4.110 -1.2135  0.8930  2.0702
18170THY    CA141549   3.608   7.960   3.970 -0.5971  0.1826  0.2505
18170THY    CA241550   3.555   8.079   3.928 -0.2398  0.0299 -1.5384
18170THY    CP141551   3.632   8.210   3.926 -0.2912 -0.2169  0.4891
18170THY    HP141552   3.739   8.186   3.924 -0.5621 -2.0325 -0.7582
18170THY    CP241553   3.614   8.279   4.060 -0.5294 -0.8305 -0.1019
18170THY    HP241554   3.637   8.209   4.141  1.2161 -0.0321  1.3058
18170THY    HP341555   3.511   8.315   4.070 -1.4199 -0.3216 -2.6008
18170THY    HP441556   3.684   8.363   4.066 -2.0765 -1.0323  1.2413
18170THY    CP341557   3.596   8.310   3.816 -0.2135 -0.5438  0.2829
18170THY    HP541558   3.673   8.388   3.820  1.5894  3.1501 -1.4577
18170THY    HP641559   3.491   8.341   3.825  0.0903  2.8380  0.7099
18170THY    HP741560   3.614   8.261   3.719 -0.6079 -0.9275  0.8787
18170THY    CA341561   3.417   8.074   3.888  0.3760  0.2633  0.1346
18170THY    HA341562   3.363   8.161   3.850  1.4038  0.8699  1.0594
18170THY    CA441563   3.347   7.954   3.893  0.9081  0.0832  0.6301
18170THY    HA441564   3.244   7.955   3.858  1.1346 -0.6017  0.2808
18170THY    CA541565   3.406   7.830   3.937 -0.8725 -1.3868 -0.5067
18170THY    CM141566   3.324   7.709   3.961 -0.5046  0.4125 -0.2548
18170THY    HM141567   3.224   7.722   3.918 -0.1723  0.0931  1.3469
18170THY    HM241568   3.312   7.673   4.064 -0.7886  0.8169  0.9486
18170THY    HM341569   3.357   7.625   3.899 -0.1851 -1.5909  1.2945
18170THY    CA641570   3.540   7.838   3.978 -0.0682 -0.3104  0.2962
18170THY    HA641571   3.602   7.753   4.006 -0.8840  0.2485 -0.1297
18171THY      O41572   4.449   2.481   2.505 -0.2219 -0.1366  0.4758
18171THY     HO41573   4.490   2.403   2.546 -2.2373  0.5607 -0.2919
18171THY    CA141574   4.531   2.564   2.457 -0.3374 -0.4102  0.3318
18171THY    CA241575   4.529   2.602   2.315  0.9246 -0.3893  0.1491
18171THY    CP141576   4.426   2.552   2.214  0.1589  0.3457  0.2031
18171THY    HP141577   4.332   2.529   2.267 -0.5331 -1.3978 -1.2266
18171THY    CP241578   4.472   2.418   2.147  0.0532 -0.8756  0.3690
18171THY    HP241579   4.397   2.390   2.072 -0.7699 -0.7254  2.0069
18171THY    HP341580   4.473   2.343   2.227 -0.4194  0.8302  2.0916
18171THY    HP441581   4.571   2.423   2.102  0.3367 -0.3640 -0.4965
18171THY    CP341582   4.394   2.657   2.102  0.1063 -0.1207  0.0528
18171THY    HP541583   4.398   2.760   2.139  0.9366  0.0374 -0.0270
18171THY    HP641584   4.297   2.647   2.052  0.3321 -1.0445  2.0326
18171THY    HP741585   4.477   2.648   2.031 -0.7336 -1.4188  2.0205
18171THY    CA341586   4.634   2.686   2.273 -0.4715 -0.1717  0.1459
18171THY    HA341587   4.662   2.708   2.171 -0.5483 -0.5198 -1.2456
18171THY    CA441588   4.728   2.730   2.363  0.6726  0.3419 -0.4473
18171THY    HA441589   4.802   2.801   2.327  1.6410  1.1291 -1.0368
18171THY    CA541590   4.737   2.688   2.497  0.2749 -0.1025  0.0999
18171THY    CM141591   4.845   2.735   2.595  0.1760 -0.5931  0.4446
18171THY    HM141592   4.920   2.788   2.535 -0.4059  0.5668  2.6941
18171THY    HM241593   4.895   2.650   2.643  1.7565  0.2337  1.7975
18171THY    HM341594   4.805   2.789   2.682  1.2053  0.3590 -0.2986
18171THY    CA641595   4.639   2.602   2.543  0.3849  0.3281 -0.4318
18171THY    HA641596   4.634   2.577   2.649 -1.6337  0.6523  1.0377
18172THY      O41597   1.710   8.187   4.659  0.5612  0.2113  0.3160
18172THY     HO41598   1.619   8.219   4.647  0.1024  1.5722 -0.4126
18172THY    CA141599   1.791   8.274   4.597  0.1076 -1.0233 -0.3417
18172THY    CA241600   1.929   8.251   4.595  0.4420  0.0355  0.5948
18172THY    CP141601   1.997   8.121   4.643  0.0689 -0.1447 -0.3046
18172THY    HP141602   1.931   8.073   4.716  1.0257  1.0288  0.1219
18172THY    CP241603   2.128   8.154   4.725  0.5120  0.7130 -0.8008
18172THY    HP241604   2.209   8.180   4.656  0.0972 -0.1657 -1.7521
18172THY    HP341605   2.158   8.057   4.767 -2.3596 -1.4316 -2.8196
18172THY    HP441606   2.113   8.223   4.809  0.1173 -1.5299  2.0405
18172THY    CP341607   2.031   8.024   4.521 -0.3950 -0.1072  0.1971
18172THY    HP541608   2.073   7.930   4.560 -3.0344 -0.3479 -1.1706
18172THY    HP641609   2.096   8.065   4.443  0.3449  0.0897 -0.5736
18172THY    HP741610   1.943   7.990   4.465 -0.2923 -0.0403 -0.1876
18172THY    CA341611   2.007   8.358   4.543 -0.9158  0.8379 -0.3101
18172THY    HA341612   2.115   8.350   4.542 -0.9166  0.2179 -0.2856
18172THY    CA441613   1.949   8.474   4.488 -0.4515 -0.5055 -0.5485
18172THY    HA441614   2.013   8.552   4.446  3.5080  2.8115 -1.6835
18172THY    CA541615   1.809   8.489   4.485 -0.6434  0.7008  0.2177
18172THY    CM141616   1.743   8.612   4.422  0.2877 -0.2019 -0.2847
18172THY    HM141617   1.676   8.587   4.339  0.2002 -0.6462  1.3192
18172THY    HM241618   1.819   8.687   4.401  1.9781  4.1291 -0.4923
18172THY    HM341619   1.678   8.652   4.501  0.2270  0.4101 -1.5350
18172THY    CA641620   1.735   8.386   4.541 -0.4497 -0.2187  0.1111
18172THY    HA641621   1.627   8.402   4.546 -0.3923  0.9127  0.1927
18173THY      O41622   8.912   7.332   6.155  0.0235 -0.0412  0.0479
18173THY     HO41623   8.891   7.263   6.220 -0.4060  0.8241  0.9643
18173THY    CA141624   8.858   7.289   6.043 -0.1763 -0.4761  0.2764
18173THY    CA241625   8.899   7.335   5.911  0.5464  0.4437 -0.4784
18173THY    CP141626   9.010   7.442   5.884  0.3068 -1.2635 -0.3511
18173THY    HP141627   9.063   7.469   5.977  1.0642 -2.0143  0.8226
18173THY    CP241628   8.952   7.576   5.829 -0.4265  0.3600 -0.1554
18173THY    HP241629   8.981   7.587   5.724  0.8699  0.6343 -0.7696
18173THY    HP341630   9.001   7.661   5.878 -0.7889  0.7087 -0.1433
18173THY    HP441631   8.843   7.569   5.834 -0.2943  1.6918 -1.7953
18173THY    CP341632   9.125   7.404   5.791 -0.3086  0.5559  0.2918
18173THY    HP541633   9.089   7.353   5.702 -1.4540 -0.1019  2.1422
18173THY    HP641634   9.188   7.342   5.857  1.6676 -0.4896  1.0761
18173THY    HP741635   9.191   7.490   5.772  0.6886 -1.4823 -0.8480
18173THY    CA341636   8.835   7.284   5.802  0.4385  0.1994  0.6988
18173THY    HA341637   8.855   7.325   5.703 -0.7222 -0.5764 -0.5075
18173THY    CA441638   8.735   7.186   5.814 -0.1978 -0.5160 -0.4564
18173THY    HA441639   8.694   7.148   5.721  0.8169 -0.7566 -1.0081
18173THY    CA541640   8.689   7.144   5.933  0.6425 -0.8303  0.4647
18173THY    CM141641   8.570   7.060   5.940  0.5490 -0.3557 -0.0012
18173THY    HM141642   8.518   7.064   6.036  0.6277 -0.2029 -1.7815
18173THY    HM241643   8.597   6.957   5.914 -0.0788 -0.2655 -0.1952
18173THY    HM341644   8.500   7.089   5.860  2.1546 -1.9272 -0.2747
18173THY    CA641645   8.759   7.189   6.051  0.0809 -0.5041  0.3832
18173THY    HA641646   8.727   7.145   6.145 -0.2509 -0.6018  0.4193
18174THY      O41647   5.249   6.973   1.928  0.6908 -0.7883  0.6292
18174THY     HO41648   5.302   7.048   1.959 -0.1660 -0.3486  1.0713
18174THY    CA141649   5.213   6.905   2.042  0.3762  0.0662  0.5836
18174THY    CA241650   5.170   6.769   2.035  0.5296  0.1806 -0.0835
18174THY    CP141651   5.166   6.696   1.898  0.0966  0.6958 -0.0742
18174THY    HP141652   5.159   6.763   1.810 -1.3750 -0.8420 -2.1219
18174THY    CP241653   5.043   6.609   1.881 -0.8546 -0.0869  0.1861
18174THY    HP241654   5.031   6.548   1.790 -0.6419  1.1537 -1.7948
18174THY    HP341655   4.956   6.675   1.893 -0.0681 -2.2230  1.7416
18174THY    HP441656   5.056   6.535   1.961  1.7273  0.9270  1.5994
18174THY    CP341657   5.293   6.618   1.875 -0.0730  0.1931  0.4623
18174THY    HP541658   5.299   6.530   1.939  0.0119  0.5106  0.6948
18174THY    HP641659   5.393   6.663   1.879 -0.1288  0.3120  0.5795
18174THY    HP741660   5.278   6.575   1.776  0.6363  0.0795  0.4638
18174THY    CA341661   5.135   6.705   2.159 -0.3633  0.0783  0.5062
18174THY    HA341662   5.100   6.602   2.162 -0.3216 -0.8711  0.4563
18174THY    CA441663   5.132   6.787   2.272 -0.3834 -0.1215 -0.1026
18174THY    HA441664   5.112   6.739   2.367  0.2442 -1.1987 -2.6841
18174THY    CA541665   5.190   6.913   2.284  0.6643  0.6501 -1.2034
18174THY    CM141666   5.222   6.972   2.413  0.3238  0.2418 -0.1379
18174THY    HM141667   5.204   6.902   2.496  1.0672 -1.0009 -1.8867
18174THY    HM241668   5.156   7.055   2.439 -0.0522  1.0220 -0.6665
18174THY    HM341669   5.327   7.001   2.402  0.0961 -0.9475  0.2820
18174THY    CA641670   5.227   6.976   2.165  0.4308 -0.4807  1.1489
18174THY    HA641671   5.270   7.075   2.158  0.1847 -1.3719  1.1957
18175THY      O41672   1.869   8.198   4.285 -0.1076 -0.4397 -0.5834
18175THY     HO41673   1.904   8.234   4.368  2.2866 -1.0893 -1.1898
18175THY    CA141674   1.982   8.154   4.222 -0.5881 -0.2545 -0.5805
18175THY    CA241675   1.984   8.026   4.166  1.0955  0.3417 -0.2467
18175THY    CP141676   1.853   7.951   4.140  0.5131 -0.4055 -0.3454
18175THY    HP141677   1.767   8.017   4.153  0.8009 -0.0194 -0.0434
18175THY    CP241678   1.838   7.831   4.222  0.4453 -0.4525  0.3572
18175THY    HP241679   1.855   7.842   4.330 -3.6902  0.9349 -3.8078
18175THY    HP341680   1.900   7.748   4.187  0.1360 -2.6675  0.9963
18175THY    HP441681   1.730   7.812   4.225  0.4401  0.9497  0.5260
18175THY    CP341682   1.826   7.915   3.987 -0.1220  0.6032  0.0726
18175THY    HP541683   1.732   7.861   3.976 -0.6715  2.5633  0.5606
18175THY    HP641684   1.908   7.846   3.962 -0.1658  0.3249  0.1196
18175THY    HP741685   1.817   8.001   3.919  1.0997  0.1819 -0.1082
18175THY    CA341686   2.112   7.977   4.118  0.1852  0.2177 -0.7245
18175THY    HA341687   2.116   7.880   4.069  0.9093 -1.4892  0.1131
18175THY    CA441688   2.222   8.066   4.113 -0.1856  0.5919  0.6575
18175THY    HA441689   2.319   8.031   4.078 -1.2857 -0.5678 -1.3952
18175THY    CA541690   2.215   8.186   4.185  0.4767 -0.2234  0.5214
18175THY    CM141691   2.338   8.266   4.208  0.2672 -0.1036 -0.6681
18175THY    HM141692   2.372   8.309   4.113  3.4933  0.9270 -0.6811
18175THY    HM241693   2.423   8.209   4.247  2.0303 -1.5271  0.8439
18175THY    HM341694   2.308   8.346   4.277  1.1853  1.0132 -1.2600
18175THY    CA641695   2.095   8.232   4.229  0.4055 -0.1798  0.5619
18175THY    HA641696   2.088   8.330   4.275  1.8893 -0.4555  0.8256
18176THY      O41697   7.239   7.920   5.117  0.1264 -0.0979  0.4711
18176THY     HO41698   7.321   7.894   5.162 -0.6948  1.0186 -0.2936
18176THY    CA141699   7.140   7.932   5.212 -0.1481 -0.1959  0.8417
18176THY    CA241700   7.007   7.964   5.183 -0.1063  0.6282 -0.0144
18176THY    CP141701   6.964   7.978   5.029  0.0960 -0.3914  0.1913
18176THY    HP141702   7.039   8.015   4.958 -0.3132  0.0033  1.8498
18176THY    CP241703   6.837   8.062   5.009  0.3440  0.2304  0.6172
18176THY    HP241704   6.823   8.081   4.901  0.3299  0.3642  1.4139
18176THY    HP341705   6.835   8.160   5.057  1.3877  0.3184  0.6117
18176THY    HP441706   6.750   8.010   5.050 -0.0248  2.8709  3.0814
18176THY    CP341707   6.924   7.835   4.990 -0.0536  0.2060 -0.2688
18176THY    HP541708   6.876   7.785   5.075  3.3740  3.5541  1.5553
18176THY    HP641709   7.019   7.782   4.974  0.8162  1.0548  0.9565
18176THY    HP741710   6.871   7.839   4.895  1.8418 -0.8791  2.8631
18176THY    CA341711   6.922   7.992   5.289  0.3188 -0.4815  0.0166
18176THY    HA341712   6.819   8.017   5.265  0.2467  1.0702  1.3767
18176THY    CA441713   6.960   7.990   5.420  0.5556 -0.0612 -0.5713
18176THY    HA441714   6.879   8.006   5.491  0.0185 -1.0094  1.1930
18176THY    CA541715   7.096   7.965   5.447  0.3121  0.9550 -0.5196
18176THY    CM141716   7.142   7.960   5.586 -0.3535  0.5543 -0.3721
18176THY    HM141717   7.075   7.909   5.655  1.2384  1.1128 -1.7946
18176THY    HM241718   7.145   8.065   5.620  1.0098 -0.0887 -0.1778
18176THY    HM341719   7.240   7.912   5.599  0.1067 -0.4209  0.2700
18176THY    CA641720   7.188   7.936   5.344 -0.3083 -0.2252 -0.0535
18176THY    HA641721   7.291   7.919   5.374 -0.4944 -0.1043 -1.0624
18177THY      O41722   5.457   5.187   5.371  0.4135 -0.2106  0.4732
18177THY     HO41723   5.366   5.220   5.362 -0.0550  0.3381 -0.6237
18177THY    CA141724   5.534   5.227   5.264  0.0382 -0.3239 -0.1103
18177THY    CA241725   5.655   5.303   5.272 -0.0791  0.3680  0.0380
18177THY    CP141726   5.709   5.340   5.407  0.2822  0.6946  0.4517
18177THY    HP141727   5.662   5.266   5.473 -0.4356 -1.3777 -1.0581
18177THY    CP241728   5.644   5.468   5.450 -0.1743 -0.0248 -0.0001
18177THY    HP241729   5.690   5.547   5.390  1.3442 -1.8794 -2.1396
18177THY    HP341730   5.674   5.485   5.554 -1.4605  0.7126 -1.8359
18177THY    HP441731   5.535   5.460   5.459 -0.1796 -1.3602 -3.1239
18177THY    CP341732   5.867   5.329   5.421  0.0585  0.2401  0.1492
18177THY    HP541733   5.881   5.334   5.529  1.3740  0.0316  2.2361
18177THY    HP641734   5.921   5.414   5.377  0.7991  0.3714 -0.2466
18177THY    HP741735   5.908   5.242   5.368  0.4999 -0.8086  0.9666
18177THY    CA341736   5.716   5.354   5.155 -0.5145  0.5602  0.6518
18177THY    HA341737   5.790   5.432   5.172 -0.2634  1.1908  0.2842
18177THY    CA441738   5.662   5.310   5.032 -0.1644  0.4066 -0.6762
18177THY    HA441739   5.704   5.332   4.935 -0.2581  0.0005 -2.1772
18177THY    CA541740   5.551   5.223   5.027 -0.2211  0.4550  0.7678
18177THY    CM141741   5.500   5.165   4.896 -0.0627 -0.8772 -0.0112
18177THY    HM141742   5.524   5.058   4.886 -0.1269 -2.2012  0.0814
18177THY    HM241743   5.538   5.222   4.811  0.4531  0.0566  1.0645
18177THY    HM341744   5.390   5.165   4.891 -0.1609  0.2528 -1.7083
18177THY    CA641745   5.482   5.191   5.141  0.5054  0.7501 -0.0504
18177THY    HA641746   5.391   5.133   5.136  0.3301  0.0862  0.2726
18178THY      O41747   9.087   1.365   4.816  0.1292  0.3906  0.0866
18178THY     HO41748   9.091   1.281   4.767 -0.4214  1.2972 -0.4720
18178THY    CA141749   8.987   1.348   4.905  0.7448 -0.4828  0.1156
18178THY    CA241750   8.944   1.442   4.997  0.1454 -0.6798 -0.1498
18178THY    CP141751   9.010   1.582   5.001  0.3332  0.1205  0.2376
18178THY    HP141752   9.088   1.596   4.927 -0.4394 -0.1664  3.9935
18178THY    CP241753   9.062   1.621   5.135 -0.1431 -0.0252  0.3793
18178THY    HP241754   9.120   1.539   5.179 -0.1082  0.0343  0.4356
18178THY    HP341755   8.982   1.640   5.208  1.1797  1.2947  1.1197
18178THY    HP441756   9.118   1.712   5.112  2.7126  3.5048 -0.2648
18178THY    CP341757   8.913   1.688   4.948 -0.7913  0.0983  0.1399
18178THY    HP541758   8.908   1.663   4.841  1.9583 -0.1452  0.3195
18178THY    HP641759   8.955   1.788   4.962  0.5075 -1.2125 -0.1876
18178THY    HP741760   8.815   1.675   4.996 -0.3117  0.5024 -2.8117
18178THY    CA341761   8.841   1.410   5.088 -0.5331  0.6725 -1.0748
18178THY    HA341762   8.813   1.487   5.160 -1.4944 -1.0291  0.2152
18178THY    CA441763   8.776   1.289   5.086 -0.2125 -0.1079  0.7096
18178THY    HA441764   8.703   1.261   5.161  0.5837  0.8583  1.1473
18178THY    CA541765   8.822   1.193   4.993  0.6920 -0.3971 -0.0694
18178THY    CM141766   8.744   1.062   4.993 -0.4696 -0.0711 -0.3899
18178THY    HM141767   8.651   1.052   5.049  1.2785  3.0518 -0.3265
18178THY    HM241768   8.822   0.994   5.028  1.3101 -0.6362  1.2495
18178THY    HM341769   8.722   1.031   4.890 -2.9569  0.2380  0.2086
18178THY    CA641770   8.923   1.224   4.899 -0.2953 -0.8495  0.6952
18178THY    HA641771   8.958   1.141   4.839  1.5718  2.2500 -0.9338
18179THY      O41772   8.783   7.851   1.870 -0.0520 -0.1341  0.4024
18179THY     HO41773   8.770   7.754   1.866  0.3482 -1.5049  0.3828
18179THY    CA141774   8.824   7.881   1.998 -0.3466 -0.7852 -0.2345
18179THY    CA241775   8.833   8.017   2.041 -0.3537 -0.1240 -0.1292
18179THY    CP141776   8.815   8.123   1.932  0.0905  0.1684 -0.6142
18179THY    HP141777   8.754   8.084   1.850  0.3349  0.8174 -2.4836
18179THY    CP241778   8.951   8.161   1.877  0.3620 -0.5206  0.7162
18179THY    HP241779   8.994   8.078   1.820  0.7338  2.1989 -1.0751
18179THY    HP341780   9.015   8.183   1.963 -1.1502  0.8893 -0.1502
18179THY    HP441781   8.940   8.252   1.817 -2.1875  1.6568  2.0001
18179THY    CP341782   8.743   8.247   1.981  0.2760  0.0512  0.4189
18179THY    HP541783   8.818   8.319   2.018  1.1448 -2.4450  0.8995
18179THY    HP641784   8.672   8.213   2.056  1.4067  1.3281  0.7797
18179THY    HP741785   8.688   8.293   1.898 -0.4096 -0.0477 -0.5692
18179THY    CA341786   8.857   8.049   2.180 -0.2497 -0.4091 -0.5504
18179THY    HA341787   8.877   8.151   2.213  1.4816 -3.5059  0.2526
18179THY    CA441788   8.889   7.936   2.267  0.4581 -0.0251 -0.0960
18179THY    HA441789   8.905   7.958   2.373  0.1386  0.2446 -1.1179
18179THY    CA541790   8.867   7.808   2.228 -0.5216  0.2795 -0.8908
18179THY    CM141791   8.875   7.699   2.323 -0.2029 -0.1873  0.2970
18179THY    HM141792   8.953   7.720   2.398 -1.0052  0.1998  2.1579
18179THY    HM241793   8.894   7.602   2.277 -1.4839 -0.7156  0.2826
18179THY    HM341794   8.781   7.712   2.378 -0.2064  0.0372 -0.6428
18179THY    CA641795   8.832   7.784   2.094  0.2068 -0.6593  0.1492
18179THY    HA641796   8.814   7.680   2.067 -1.0203 -0.0826  0.1920
18180THY      O41797   6.446   7.818   7.733 -0.0901  0.0495 -0.3606
18180THY     HO41798   6.525   7.850   7.686  0.2441  0.1096 -1.0820
18180THY    CA141799   6.356   7.920   7.726  0.3214  0.0592 -0.3192
18180THY    CA241800   6.225   7.900   7.778 -0.1338 -0.7431 -0.4299
18180THY    CP141801   6.177   7.761   7.833  0.1161 -0.2776  0.1153
18180THY    HP141802   6.271   7.707   7.852  0.8052 -1.0599  1.0116
18180THY    CP241803   6.115   7.691   7.719  0.0798 -0.4513  0.1114
18180THY    HP241804   6.171   7.692   7.624 -2.5044 -2.0534 -0.0137
18180THY    HP341805   6.018   7.735   7.696  0.5187  0.1801  1.4309
18180THY    HP441806   6.101   7.586   7.750 -0.5854  0.7450  0.5423
18180THY    CP341807   6.084   7.757   7.950 -0.3370  0.1818  0.1867
18180THY    HP541808   6.104   7.839   8.021  2.5519 -0.8007  0.4480
18180THY    HP641809   6.087   7.656   7.992 -2.7717 -2.5176 -1.1419
18180THY    HP741810   5.979   7.771   7.921 -0.2503  0.6629  2.1682
18180THY    CA341811   6.136   8.008   7.780 -0.2262  0.2039 -0.0981
18180THY    HA341812   6.034   7.991   7.811  0.4234  2.7922  0.2535
18180THY    CA441813   6.178   8.130   7.735 -0.9912  0.0341  1.1456
18180THY    HA441814   6.106   8.209   7.717 -0.1133 -1.4928  1.6402
18180THY    CA541815   6.311   8.152   7.696 -0.0354 -0.2806  0.2438
18180THY    CM141816   6.364   8.285   7.643 -0.5536 -0.1287  0.0407
18180THY    HM141817   6.389   8.349   7.728 -1.5234  1.4311 -1.5587
18180THY    HM241818   6.294   8.345   7.583 -1.7814  0.6057 -0.6213
18180THY    HM341819   6.453   8.267   7.581  0.3743  0.6191  1.7849
18180THY    CA641820   6.400   8.043   7.683  0.3263 -0.1460  0.3331
18180THY    HA641821   6.501   8.056   7.647  0.1821 -0.8930 -0.5121
18181THY      O41822   4.346   8.813   6.852  0.2363  0.5366 -0.2939
18181THY     HO41823   4.412   8.883   6.837  0.1466  0.4490 -0.2272
18181THY    CA141824   4.228   8.878   6.857  0.9666  0.7009 -0.3030
18181THY    CA241825   4.112   8.814   6.906 -0.3158  0.4714  0.1353
18181THY    CP141826   4.127   8.674   6.965  0.2589  0.8098  0.2049
18181THY    HP141827   4.230   8.635   6.965  0.5824 -1.1113  0.9607
18181THY    CP241828   4.043   8.575   6.880 -0.3489 -0.8798  0.2725
18181THY    HP241829   4.055   8.587   6.771  0.0129 -1.1219 -1.9146
18181THY    HP341830   3.935   8.570   6.891 -0.2444 -0.3225 -2.2599
18181THY    HP441831   4.075   8.473   6.904 -1.1669 -2.0660 -0.2871
18181THY    CP341832   4.087   8.658   7.112  0.7591  0.3086 -0.6117
18181THY    HP541833   4.140   8.735   7.168  0.0519 -0.4510  0.4662
18181THY    HP641834   4.107   8.557   7.149  0.6957  1.4732 -0.2171
18181THY    HP741835   3.980   8.673   7.132  0.8479  0.3028  0.0309
18181THY    CA341836   3.985   8.878   6.900  0.7708  0.1016 -0.6754
18181THY    HA341837   3.893   8.827   6.928  1.0363  1.7642 -0.2974
18181THY    CA441838   3.980   9.008   6.852  0.4750  0.5632 -0.3571
18181THY    HA441839   3.882   9.052   6.836  0.4355  1.3893 -0.1209
18181THY    CA541840   4.096   9.080   6.822  0.7556 -0.4236  0.4725
18181THY    CM141841   4.095   9.225   6.786  0.0266  0.2636  0.3397
18181THY    HM141842   4.045   9.242   6.690  1.3279 -0.3970  0.5708
18181THY    HM241843   4.198   9.249   6.756  0.0965 -1.3031 -1.6581
18181THY    HM341844   4.066   9.282   6.875 -0.2205  0.5310 -0.1942
18181THY    CA641845   4.217   9.013   6.832 -0.8094  0.4584 -1.0184
18181THY    HA641846   4.312   9.059   6.804 -0.0792  0.7502 -2.2893
18182THY      O41847   4.639   1.135   2.890 -0.5798  0.3043  0.0872
18182THY     HO41848   4.591   1.181   2.819 -1.4150  0.7950 -0.0061
18182THY    CA141849   4.772   1.155   2.865  0.6250  0.4300  0.4452
18182THY    CA241850   4.857   1.193   2.973 -0.4504 -0.0071 -0.7756
18182THY    CP141851   4.812   1.181   3.120 -0.4866  0.0251  0.0284
18182THY    HP141852   4.709   1.142   3.125 -0.5939  0.3737  0.3427
18182THY    CP241853   4.821   1.320   3.184  0.3920 -0.0717 -0.0094
18182THY    HP241854   4.906   1.381   3.149 -0.1005 -0.6194  0.3709
18182THY    HP341855   4.832   1.295   3.290 -0.1987 -0.4101 -1.8348
18182THY    HP441856   4.729   1.373   3.158  0.5103  2.4111  1.5787
18182THY    CP341857   4.910   1.082   3.189  0.3315  0.3034  0.7070
18182THY    HP541858   5.011   1.123   3.192  0.8421  1.5709 -0.5940
18182THY    HP641859   4.916   0.988   3.133 -4.1973 -1.5959  1.2851
18182THY    HP741860   4.881   1.067   3.293 -0.8498  0.4544  3.4627
18182THY    CA341861   4.985   1.212   2.939 -0.0673  0.2407 -0.8805
18182THY    HA341862   5.067   1.243   3.003  1.1811 -1.5344 -0.3744
18182THY    CA441863   5.025   1.201   2.807 -0.2630 -0.0198  0.5809
18182THY    HA441864   5.129   1.224   2.785 -0.3278 -0.1640  0.7432
18182THY    CA541865   4.941   1.176   2.706 -0.1098  0.0699  0.1921
18182THY    CM141866   4.996   1.170   2.568  1.1445  0.0153  0.0488
18182THY    HM141867   4.926   1.220   2.501  0.4041  1.7831  1.5034
18182THY    HM241868   5.024   1.067   2.544 -1.0019  0.1033 -0.6189
18182THY    HM341869   5.090   1.225   2.557  0.6604  1.4555  1.2388
18182THY    CA641870   4.813   1.144   2.739 -0.5705  1.2783  0.3518
18182THY    HA641871   4.744   1.122   2.658 -0.5962  1.2842  0.4115
18183THY      O41872   9.026   5.151   3.211 -0.1545  0.3966 -0.4550
18183THY     HO41873   9.033   5.093   3.289  0.5399 -0.0578 -0.9996
18183THY    CA141874   8.899   5.164   3.165  0.3384 -1.1588  0.5119
18183THY    CA241875   8.861   5.242   3.056  1.0384 -0.7987 -0.3082
18183THY    CP141876   8.967   5.315   2.978  0.1950 -0.1409  0.1510
18183THY    HP141877   9.050   5.339   3.045 -0.8837  1.2276  0.2099
18183THY    CP241878   8.935   5.441   2.912  0.1858  0.1651 -0.6889
18183THY    HP241879   8.903   5.520   2.981  1.7367 -0.2994  0.4162
18183THY    HP341880   8.859   5.434   2.833  0.0639  0.0041  1.6042
18183THY    HP441881   9.026   5.477   2.862 -0.9151  0.3383  2.6846
18183THY    CP341882   9.019   5.218   2.873 -0.2015  0.5608 -0.2765
18183THY    HP541883   8.941   5.182   2.804 -0.7720  1.1900 -0.2828
18183THY    HP641884   9.051   5.133   2.933 -0.1104 -1.7303 -1.9606
18183THY    HP741885   9.103   5.255   2.813 -1.6912 -2.9858 -2.1067
18183THY    CA341886   8.731   5.256   3.020  0.0585  0.0941 -0.7632
18183THY    HA341887   8.707   5.316   2.933  1.5559  1.5163  2.1308
18183THY    CA441888   8.633   5.183   3.093 -0.2406 -0.5006  0.4754
18183THY    HA441889   8.528   5.188   3.066 -0.4938  0.2743 -0.4342
18183THY    CA541890   8.673   5.098   3.199  0.4538  0.2822 -0.2275
18183THY    CM141891   8.579   5.023   3.283  0.3427  0.3513  0.8433
18183THY    HM141892   8.627   4.995   3.377  1.4013  0.4328  2.7943
18183THY    HM241893   8.545   4.931   3.234 -0.6408  2.2733  0.1256
18183THY    HM341894   8.489   5.082   3.308 -0.6868  1.9625 -1.2784
18183THY    CA641895   8.808   5.091   3.238  0.8161  0.2521 -0.1502
18183THY    HA641896   8.836   5.033   3.325 -2.3098  0.2867 -1.8415
18184THY      O41897   3.342   1.864   6.364  0.6251 -0.2464 -0.4486
18184THY     HO41898   3.284   1.868   6.442  0.7639 -0.1867  0.9409
18184THY    CA141899   3.274   1.787   6.276 -0.0311 -0.7074 -0.0445
18184THY    CA241900   3.265   1.646   6.281  0.2522 -0.9179 -0.0891
18184THY    CP141901   3.339   1.571   6.398 -0.1318 -0.2149  0.5220
18184THY    HP141902   3.338   1.634   6.488 -3.7685  1.7385 -1.9341
18184THY    CP241903   3.475   1.542   6.339 -0.5484  0.8411 -0.5837
18184THY    HP241904   3.504   1.646   6.324  0.8837  0.3257 -1.0233
18184THY    HP341905   3.476   1.476   6.251 -0.6379  0.4124 -0.0161
18184THY    HP441906   3.534   1.515   6.428 -0.1167  0.6445 -0.2981
18184THY    CP341907   3.267   1.449   6.456 -0.4002  0.0033  0.2212
18184THY    HP541908   3.166   1.470   6.492 -1.1063  0.4103 -3.3207
18184THY    HP641909   3.319   1.390   6.532  0.3220 -1.4905 -1.1587
18184THY    HP741910   3.258   1.374   6.377  1.0932 -0.0301  0.0490
18184THY    CA341911   3.178   1.585   6.191 -0.8023 -0.3462  0.2349
18184THY    HA341912   3.171   1.476   6.191 -1.9074  0.4827  0.2966
18184THY    CA441913   3.113   1.659   6.091  0.2689  0.3447  0.0525
18184THY    HA441914   3.034   1.613   6.031 -0.4483  1.4147 -0.1456
18184THY    CA541915   3.139   1.795   6.070 -0.7005 -0.5652 -0.3307
18184THY    CM141916   3.085   1.868   5.951 -0.0960 -0.6558 -0.3205
18184THY    HM141917   2.978   1.891   5.962 -0.4212 -0.8358 -1.7018
18184THY    HM241918   3.092   1.805   5.862  0.2498  0.2514 -1.5959
18184THY    HM341919   3.160   1.945   5.927  0.9683 -0.1093 -1.1576
18184THY    CA641920   3.211   1.856   6.168  0.6323 -0.9006 -0.0835
18184THY    HA641921   3.224   1.964   6.170 -1.1636 -2.8395  0.2296
18185THY      O41922   2.496   0.777   6.258 -0.0267  0.1885 -0.2179
18185THY     HO41923   2.500   0.847   6.191  0.4683  2.6906  2.3317
18185THY    CA141924   2.411   0.813   6.360  0.3081  0.3031 -0.3828
18185THY    CA241925   2.438   0.791   6.496  0.4569 -1.2245  0.8578
18185THY    CP141926   2.570   0.729   6.539 -0.1302  0.0814  0.2357
18185THY    HP141927   2.631   0.687   6.457  0.5144  1.3225 -1.3533
18185THY    CP241928   2.555   0.601   6.626 -0.1106 -0.1767  0.1966
18185THY    HP241929   2.488   0.624   6.710 -1.3923 -1.2598  0.5442
18185THY    HP341930   2.656   0.581   6.663 -1.0637  1.4729 -1.9816
18185THY    HP441931   2.510   0.521   6.565 -1.0298  0.0024  0.5735
18185THY    CP341932   2.652   0.842   6.606 -0.4268  0.2411  0.1764
18185THY    HP541933   2.632   0.932   6.547 -0.3417 -2.3798 -1.4343
18185THY    HP641934   2.760   0.829   6.604 -0.5996 -0.9820 -1.2374
18185THY    HP741935   2.618   0.855   6.710 -0.7744  0.2391 -0.6631
18185THY    CA341936   2.332   0.804   6.596  0.3589  0.6687 -0.2868
18185THY    HA341937   2.343   0.788   6.703 -0.0596  0.6129 -0.9925
18185THY    CA441938   2.210   0.861   6.550  0.1691  0.2496  0.5629
18185THY    HA441939   2.134   0.891   6.621  0.1869  0.3177  0.4502
18185THY    CA541940   2.187   0.889   6.419 -0.1309  0.3017 -0.3125
18185THY    CM141941   2.056   0.957   6.385 -0.6040  0.7228  0.0379
18185THY    HM141942   2.062   1.025   6.299  0.4477  0.0350 -0.8930
18185THY    HM241943   2.009   1.006   6.471 -1.8482  0.2870 -0.3721
18185THY    HM341944   1.989   0.878   6.349  0.0511 -1.2523  0.3222
18185THY    CA641945   2.285   0.860   6.323 -0.7967  0.3070 -0.2159
18185THY    HA641946   2.273   0.865   6.216 -0.6782  0.2912 -0.2642
18186THY      O41947   6.848   5.215   2.880  0.8154  0.0205  0.2599
18186THY     HO41948   6.933   5.168   2.879 -0.0600  0.0812 -1.4026
18186THY    CA141949   6.768   5.151   2.978  0.7074 -0.7109 -0.0986
18186THY    CA241950   6.621   5.154   2.983 -0.1949 -0.0227  0.1104
18186THY    CP141951   6.539   5.245   2.886  0.1783  0.2824 -0.0475
18186THY    HP141952   6.595   5.336   2.860 -1.2886 -0.0660  0.7938
18186THY    CP241953   6.410   5.301   2.947 -0.5523  0.1731 -0.6078
18186THY    HP241954   6.332   5.225   2.952  0.4613 -0.3844 -1.7175
18186THY    HP341955   6.376   5.389   2.891  2.8003 -0.7065  0.2762
18186THY    HP441956   6.416   5.330   3.052 -2.2321  0.3191 -0.6669
18186THY    CP341957   6.515   5.169   2.754 -0.0019 -0.0120 -0.4295
18186THY    HP541958   6.471   5.237   2.680 -0.5099  1.9380  1.5183
18186THY    HP641959   6.446   5.086   2.771 -2.4784  2.0681  1.8263
18186THY    HP741960   6.611   5.134   2.715 -0.4103 -1.1364 -0.3375
18186THY    CA341961   6.556   5.084   3.087  0.2128  0.2515  0.5059
18186THY    HA341962   6.450   5.099   3.101 -0.1930 -0.3908 -1.4126
18186THY    CA441963   6.625   4.995   3.165  0.1348 -0.5638  0.6873
18186THY    HA441964   6.578   4.941   3.247 -0.2214 -1.1614  0.0854
18186THY    CA541965   6.762   4.993   3.156  0.1924  0.2456 -0.1092
18186THY    CM141966   6.835   4.890   3.244  0.2647 -0.4897 -0.2228
18186THY    HM141967   6.941   4.919   3.241 -0.3598 -1.5876  2.1842
18186THY    HM241968   6.811   4.791   3.203  1.0099 -2.1449  0.2494
18186THY    HM341969   6.814   4.895   3.351  0.5717 -0.4248 -0.2571
18186THY    CA641970   6.836   5.067   3.062  1.0759  0.0611 -0.2731
18186THY    HA641971   6.944   5.067   3.054  1.0449 -0.9643  1.8309
18187THY      O41972   8.065   5.235   7.541 -0.0547  0.3410 -0.2902
18187THY     HO41973   8.010   5.155   7.543 -1.1647  2.9474  0.4476
18187THY    CA141974   8.123   5.250   7.419  1.1487  0.6304  0.6880
18187THY    CA241975   8.235   5.326   7.401 -0.3495  0.5615 -0.1080
18187THY    CP141976   8.307   5.384   7.523 -0.1170 -0.1252  1.0322
18187THY    HP141977   8.244   5.402   7.610  0.4649  0.7990 -1.1276
18187THY    CP241978   8.374   5.519   7.497 -0.6014  0.0684 -0.2540
18187THY    HP241979   8.394   5.576   7.588 -0.7542 -0.2073  0.2477
18187THY    HP341980   8.309   5.589   7.441 -0.3765  1.1751  0.8774
18187THY    HP441981   8.463   5.517   7.433 -0.4597  0.2921 -1.5862
18187THY    CP341982   8.406   5.284   7.593 -0.0402  0.0599 -0.0390
18187THY    HP541983   8.352   5.192   7.618  1.0460 -0.7222 -0.9119
18187THY    HP641984   8.448   5.329   7.684 -1.4784  1.2409 -0.9881
18187THY    HP741985   8.493   5.269   7.529  0.8322  1.0185  0.7771
18187THY    CA341986   8.288   5.342   7.270  0.3883  0.1011  0.2750
18187THY    HA341987   8.379   5.400   7.258  1.6845 -0.1340 -1.7253
18187THY    CA441988   8.220   5.285   7.164  0.3604  0.1273 -0.4997
18187THY    HA441989   8.247   5.298   7.059  0.3716  0.1737 -0.1342
18187THY    CA541990   8.105   5.210   7.184  0.1029  0.4954 -0.2467
18187THY    CM141991   8.027   5.146   7.076  0.5070  0.3626 -0.1457
18187THY    HM141992   8.039   5.038   7.089 -2.1738  1.0219 -0.4332
18187THY    HM241993   8.047   5.174   6.972  0.1751 -0.6862 -3.4069
18187THY    HM341994   7.921   5.152   7.103  0.0222 -1.3419 -0.5465
18187THY    CA641995   8.060   5.190   7.313  0.7386 -0.8093 -0.5297
18187THY    HA641996   7.973   5.129   7.336  0.6317 -3.1050 -1.3159
18188THY      O41997   3.141   4.619   6.249 -0.3668  0.4419 -0.6457
18188THY     HO41998   3.098   4.664   6.323 -1.6125 -1.4676  1.5466
18188THY    CA141999   3.067   4.505   6.231 -0.3315  0.4741  0.4467
18188THY    CA242000   3.086   4.435   6.110 -0.7416 -0.4982  0.4029
18188THY    CP142001   3.200   4.473   6.015  0.4253 -0.9622  0.2979
18188THY    HP142002   3.212   4.582   6.018 -3.0293 -2.1281  0.8137
18188THY    CP242003   3.167   4.444   5.865  0.0024 -0.3650  0.3288
18188THY    HP242004   3.073   4.487   5.828  0.4212 -1.5559  0.2586
18188THY    HP342005   3.162   4.334   5.861  2.4636 -1.2557  0.1900
18188THY    HP442006   3.250   4.485   5.807  1.3134  1.3720  0.2371
18188THY    CP342007   3.325   4.398   6.061  0.1031 -0.0758  0.2324
18188THY    HP542008   3.348   4.437   6.161  0.5165 -0.0683 -0.0220
18188THY    HP642009   3.411   4.413   5.995 -0.1349 -0.5143 -0.2898
18188THY    HP742010   3.306   4.290   6.067  0.5774  0.7759  0.1857
18188THY    CA342011   3.018   4.314   6.094 -0.1997  0.4671  0.0427
18188THY    HA342012   3.020   4.267   5.996 -0.0160 -1.7896  4.2088
18188THY    CA442013   2.925   4.278   6.196 -0.8432 -0.2202 -0.1116
18188THY    HA442014   2.860   4.192   6.182 -3.1646 -0.9458  1.6403
18188THY    CA542015   2.916   4.350   6.314 -0.1428 -0.7642 -0.3414
18188THY    CM142016   2.819   4.311   6.417  0.7988  0.3213 -0.1004
18188THY    HM142017   2.733   4.378   6.405 -0.3764  2.0315 -1.2052
18188THY    HM242018   2.863   4.306   6.517 -0.3574  0.8133 -1.0736
18188THY    HM342019   2.771   4.214   6.397  0.3381  0.5706  0.0728
18188THY    CA642020   2.982   4.472   6.325  0.2560 -0.3894 -0.8477
18188THY    HA642021   2.956   4.525   6.416 -0.0342 -0.6136 -0.6006
18189THY      O42022   3.936   2.948   7.139 -0.1980 -0.1181 -0.2349
18189THY     HO42023   3.985   2.892   7.201  0.6225 -0.5758 -0.0451
18189THY    CA142024   4.033   3.018   7.072 -0.2601  0.5433 -0.4971
18189THY    CA242025   4.007   3.116   6.979  0.3271  0.4885  0.9065
18189THY    CP142026   3.859   3.127   6.931  0.0602 -0.6217  0.5310
18189THY    HP142027   3.789   3.066   6.989 -0.1422 -0.7509  0.6358
18189THY    CP242028   3.838   3.103   6.776 -0.3733 -0.4855  0.1283
18189THY    HP242029   3.900   3.165   6.712 -0.5281 -0.1604  0.6273
18189THY    HP342030   3.731   3.112   6.754 -0.4965 -0.3269 -0.7808
18189THY    HP442031   3.855   2.996   6.757  1.0737 -1.3119  0.4868
18189THY    CP342032   3.819   3.277   6.949 -0.5717  0.2222  0.4509
18189THY    HP542033   3.717   3.291   6.912 -0.9659  0.9526 -0.3805
18189THY    HP642034   3.883   3.347   6.894  0.2178 -0.9111 -1.0987
18189THY    HP742035   3.810   3.301   7.056 -1.2100  0.3518 -0.3462
18189THY    CA342036   4.111   3.195   6.923 -0.0775  0.6246 -0.0638
18189THY    HA342037   4.085   3.267   6.846 -1.8757  1.1824 -0.0762
18189THY    CA442038   4.241   3.183   6.977  0.4160 -0.0798  1.1709
18189THY    HA442039   4.328   3.238   6.940  0.4058 -1.5018  0.2840
18189THY    CA542040   4.268   3.085   7.075 -0.0023 -0.7110  0.2575
18189THY    CM142041   4.402   3.050   7.114 -0.7384 -0.4068  0.1266
18189THY    HM142042   4.407   3.032   7.222 -1.8956 -0.1145  1.3653
18189THY    HM242043   4.476   3.127   7.088 -1.4617 -0.6574  0.7541
18189THY    HM342044   4.445   2.969   7.056  1.3080 -1.3256  1.7764
18189THY    CA642045   4.162   2.997   7.118 -0.6198 -0.1320 -0.7628
18189THY    HA642046   4.180   2.909   7.179 -3.0241 -0.3866 -1.5185
18190THY      O42047   8.057   1.465   5.579 -0.1409 -0.2131 -0.2792
18190THY     HO42048   8.142   1.426   5.550 -0.5462  2.3392 -3.5587
18190THY    CA142049   7.967   1.457   5.481 -0.0932  0.5095 -0.1025
18190THY    CA242050   7.841   1.521   5.468 -0.0946 -0.3695  0.0557
18190THY    CP142051   7.806   1.626   5.579 -0.7090 -0.0134  0.0162
18190THY    HP142052   7.883   1.626   5.658 -0.2124 -0.4797 -1.4976
18190THY    CP242053   7.673   1.602   5.653 -0.0155 -0.3262 -0.1541
18190THY    HP242054   7.677   1.516   5.720  3.0031 -1.6475 -1.1859
18190THY    HP342055   7.592   1.584   5.581 -0.0305  0.1601 -2.3343
18190THY    HP442056   7.645   1.689   5.712 -0.7149  0.1399 -0.6813
18190THY    CP342057   7.812   1.770   5.526  0.5238  0.3759 -0.6929
18190THY    HP542058   7.757   1.849   5.578  2.1950  0.3479  0.5521
18190THY    HP642059   7.773   1.788   5.425  1.8887  0.1666  1.5135
18190THY    HP742060   7.918   1.794   5.511  1.0836  0.8390 -2.7233
18190THY    CA342061   7.757   1.505   5.357  0.0717 -0.3329 -0.4130
18190THY    HA342062   7.662   1.556   5.359  0.4344 -1.1949  0.3280
18190THY    CA442063   7.811   1.433   5.251 -0.1378  0.3574 -0.4162
18190THY    HA442064   7.757   1.416   5.158  0.8695 -0.0170 -1.7745
18190THY    CA542065   7.940   1.375   5.254 -0.0170  0.4691 -0.2093
18190THY    CM142066   7.991   1.291   5.145 -0.4004 -0.2575  0.9000
18190THY    HM142067   7.940   1.329   5.056 -0.0423 -0.8105  0.0957
18190THY    HM242068   7.946   1.193   5.166  1.0222 -0.5132  0.1630
18190THY    HM342069   8.098   1.267   5.149 -0.6837  1.0467 -0.2748
18190THY    CA642070   8.015   1.385   5.371  0.1312  0.4946 -0.1050
18190THY    HA642071   8.109   1.331   5.375 -0.1319  0.4657 -0.5782
18191THY      O42072   8.017   8.827   7.064 -0.1418  0.1840  0.1359
18191THY     HO42073   8.005   8.772   6.984  0.6555 -1.1853  1.8569
18191THY    CA142074   7.948   8.940   7.048  0.6004 -0.8563 -0.1020
18191THY    CA242075   7.965   9.049   7.141 -0.7225  0.2395  0.2621
18191THY    CP142076   8.072   9.045   7.243  0.3232 -0.9492  0.8392
18191THY    HP142077   8.159   9.007   7.188 -0.2225 -0.8383 -0.6272
18191THY    CP242078   8.047   8.955   7.362  0.5062  0.4226 -0.3658
18191THY    HP242079   8.056   8.852   7.327  1.6821 -1.4490  0.3263
18191THY    HP342080   7.944   8.977   7.394  0.3726 -0.9577  1.1450
18191THY    HP442081   8.117   8.972   7.445 -0.9411  1.4356  0.8963
18191THY    CP342082   8.113   9.185   7.300 -0.7373 -0.0200  0.7588
18191THY    HP542083   8.046   9.212   7.382 -2.3378 -0.4548 -1.5746
18191THY    HP642084   8.102   9.256   7.217  1.5633  0.0315  1.2326
18191THY    HP742085   8.214   9.186   7.342 -0.9336  0.5872 -0.9510
18191THY    CA342086   7.882   9.157   7.121 -0.5829 -0.4435 -0.6129
18191THY    HA342087   7.887   9.250   7.176 -0.8320 -1.4040 -0.0266
18191THY    CA442088   7.785   9.160   7.020  0.9093 -0.2088 -0.1305
18191THY    HA442089   7.715   9.243   7.014 -0.7446  0.5061 -1.4047
18191THY    CA542090   7.775   9.053   6.933  0.1647 -0.3708  0.3381
18191THY    CM142091   7.680   9.055   6.815  0.0346  0.8186  0.2405
18191THY    HM142092   7.638   8.959   6.784 -1.2628 -1.2479  1.4078
18191THY    HM242093   7.727   9.083   6.720  0.2436 -0.2357 -3.2542
18191THY    HM342094   7.595   9.122   6.836 -0.3580 -0.1871  0.0725
18191THY    CA642095   7.852   8.943   6.948  0.8745 -1.0866 -0.3899
18191THY    HA642096   7.855   8.858   6.880  2.0835 -1.8011  0.1957
18192THY      O42097   3.410   8.034   2.331  0.0389  0.9071  0.1661
18192THY     HO42098   3.504   8.051   2.316  0.6453  0.5918 -2.8358
18192THY    CA142099   3.382   7.916   2.274 -0.5960  0.3620 -0.2350
18192THY    CA242100   3.255   7.865   2.270 -0.5440 -0.9112  0.2357
18192THY    CP142101   3.140   7.940   2.328 -0.2289 -0.7041 -0.3744
18192THY    HP142102   3.169   8.039   2.365  0.1361 -0.9692 -0.3805
18192THY    CP242103   3.082   7.869   2.457  0.4262 -0.5321  0.3660
18192THY    HP242104   3.163   7.854   2.530 -0.7838  0.7624 -0.0636
18192THY    HP342105   3.036   7.773   2.433 -0.5036 -1.0277  0.9214
18192THY    HP442106   2.998   7.922   2.505  0.2969  0.7764 -0.9729
18192THY    CP342107   3.022   7.958   2.233  0.3096  0.2032 -0.4537
18192THY    HP542108   2.942   7.888   2.256  0.0015  1.7002  0.3404
18192THY    HP642109   3.068   7.958   2.134 -1.6931 -0.8030  0.9601
18192THY    HP742110   2.986   8.061   2.245  2.4433  1.5643  0.2234
18192THY    CA342111   3.221   7.753   2.197  0.2797 -0.9050 -0.3713
18192THY    HA342112   3.119   7.717   2.186 -0.2515 -1.5772  1.2553
18192THY    CA442113   3.331   7.678   2.154  0.7575  0.3987 -0.6082
18192THY    HA442114   3.309   7.585   2.101 -1.1970 -0.9712  0.5633
18192THY    CA542115   3.460   7.717   2.168  0.0075  0.0205 -0.0730
18192THY    CM142116   3.573   7.640   2.101  0.4411 -0.1118  0.1808
18192THY    HM142117   3.677   7.649   2.134  0.5302  0.5501 -2.4126
18192THY    HM242118   3.562   7.657   1.993  1.2858 -0.2380 -0.0143
18192THY    HM342119   3.557   7.532   2.112  2.4494 -1.6341 -0.3449
18192THY    CA642120   3.486   7.845   2.221 -0.2081  0.6639  0.2135
18192THY    HA642121   3.589   7.877   2.220 -0.1237  0.0358 -0.0616
18193THY      O42122   6.648   8.805   3.437  0.1724 -0.2052  0.0214
18193THY     HO42123   6.651   8.858   3.518 -0.3111 -2.3693  3.6600
18193THY    CA142124   6.781   8.789   3.408 -0.4044 -0.2523  0.4906
18193THY    CA242125   6.826   8.750   3.282  0.3279 -0.3385  0.0361
18193THY    CP142126   6.717   8.742   3.167  0.2618  0.4252  0.0969
18193THY    HP142127   6.616   8.774   3.196 -0.4123 -1.5571 -0.1162
18193THY    CP242128   6.702   8.590   3.114 -0.0868 -0.2886 -0.4902
18193THY    HP242129   6.654   8.538   3.198  0.6923  1.6741  1.7589
18193THY    HP342130   6.799   8.555   3.078  0.1305  0.1543 -0.3612
18193THY    HP442131   6.640   8.576   3.025 -0.1076 -0.1206 -1.5187
18193THY    CP342132   6.756   8.827   3.044  0.2089 -0.0083 -0.1130
18193THY    HP542133   6.856   8.800   3.007 -0.3265 -1.6613  0.0189
18193THY    HP642134   6.746   8.931   3.078  0.6267 -0.7003  0.1609
18193THY    HP742135   6.685   8.808   2.963 -0.5922 -0.1373  2.8865
18193THY    CA342136   6.968   8.738   3.264  0.0808  0.3061  0.5463
18193THY    HA342137   7.005   8.720   3.164 -0.4406  0.0777  0.7173
18193THY    CA442138   7.056   8.744   3.371  0.5404  0.0540 -0.0902
18193THY    HA442139   7.160   8.714   3.361 -0.3875 -2.1049 -3.0974
18193THY    CA542140   7.003   8.779   3.501 -0.3794  0.7077 -0.8379
18193THY    CM142141   7.093   8.761   3.625 -0.3808  0.0323 -0.1143
18193THY    HM142142   7.179   8.828   3.617  0.1103  2.0206 -0.4520
18193THY    HM242143   7.136   8.661   3.632 -1.1036  1.4709 -0.3465
18193THY    HM342144   7.036   8.796   3.712  0.2669  0.3054  0.2802
18193THY    CA642145   6.870   8.808   3.515  0.2792  0.0544  0.0624
18193THY    HA642146   6.839   8.834   3.616 -0.3902 -0.4194  1.1418
18194THY      O42147   1.990   9.323   4.013  0.2968 -0.2759 -0.0823
18194THY     HO42148   1.922   9.337   4.081  1.6858  1.3248 -0.7545
18194THY    CA142149   2.086   9.265   4.079  0.2890 -0.0314 -0.4635
18194THY    CA242150   2.200   9.214   4.017 -0.6013  0.6510 -0.0841
18194THY    CP142151   2.209   9.236   3.865  0.2521 -0.2943 -0.1206
18194THY    HP142152   2.165   9.330   3.830  0.1550 -0.1196 -0.1011
18194THY    CP242153   2.135   9.126   3.801 -0.6370 -0.2404  0.0996
18194THY    HP242154   2.145   9.147   3.694 -1.3392 -0.4387 -0.5576
18194THY    HP342155   2.028   9.129   3.826 -0.2159  1.7075  0.0685
18194THY    HP442156   2.177   9.026   3.819 -1.4122 -1.2698 -0.4302
18194THY    CP342157   2.358   9.242   3.824 -1.1288  1.2275  0.2969
18194THY    HP542158   2.355   9.261   3.716  0.3948  1.3473  1.3346
18194THY    HP642159   2.418   9.151   3.834  1.2337  0.2433  1.6396
18194THY    HP742160   2.426   9.320   3.861 -1.2182 -0.2195  1.1033
18194THY    CA342161   2.305   9.150   4.095 -0.0335  0.2909  0.3986
18194THY    HA342162   2.389   9.100   4.047  0.9637  3.2206 -0.9153
18194THY    CA442163   2.282   9.141   4.234 -1.5977  0.0596  0.2612
18194THY    HA442164   2.342   9.081   4.302 -0.8076 -1.0648 -0.2560
18194THY    CA542165   2.175   9.205   4.295  0.4739 -0.5852  0.2305
18194THY    CM142166   2.165   9.211   4.444 -0.2436  0.0688 -0.1605
18194THY    HM142167   2.074   9.157   4.473 -0.3010  1.6872  0.7220
18194THY    HM242168   2.150   9.315   4.477  0.2761  1.3223 -0.4699
18194THY    HM342169   2.246   9.154   4.491 -0.9424 -0.0814 -1.2985
18194THY    CA642170   2.073   9.265   4.215 -0.3469  0.3114  0.0862
18194THY    HA642171   1.989   9.316   4.261 -0.1123 -1.9357  2.7396
18195THY      O42172   8.230   5.807   4.732  0.1066  0.3479 -0.0625
18195THY     HO42173   8.222   5.732   4.794 -0.2133 -1.0507 -1.2152
18195THY    CA142174   8.219   5.743   4.613  0.4898  0.5815 -0.0499
18195THY    CA242175   8.158   5.806   4.497 -0.5438 -0.9006  0.5700
18195THY    CP142176   8.118   5.955   4.500 -0.2614  0.1172 -0.5421
18195THY    HP142177   8.130   6.002   4.599 -0.2525  0.0094 -0.3152
18195THY    CP242178   7.968   5.978   4.468  0.6013  0.3255 -0.1793
18195THY    HP242179   7.924   5.922   4.551 -0.1784 -0.3235 -0.5365
18195THY    HP342180   7.957   5.925   4.373 -1.3246 -0.2586  1.1701
18195THY    HP442181   7.938   6.082   4.450  1.4385 -5.3041 -0.5967
18195THY    CP342182   8.217   6.038   4.416  0.6667  0.6109  0.2366
18195THY    HP542183   8.306   6.056   4.477 -0.2557  1.0936  4.0342
18195THY    HP642184   8.167   6.130   4.386 -0.7483  0.3564 -0.5891
18195THY    HP742185   8.243   5.975   4.330 -2.5661  0.7284 -1.4667
18195THY    CA342186   8.139   5.726   4.386 -0.2117 -0.1206  0.1548
18195THY    HA342187   8.086   5.758   4.296  0.2775 -0.5547 -0.2372
18195THY    CA442188   8.178   5.595   4.386 -0.5222 -0.1386  1.3637
18195THY    HA442189   8.155   5.527   4.304  0.9305 -1.7367  2.6952
18195THY    CA542190   8.238   5.533   4.494  0.1535  0.1762 -1.0675
18195THY    CM142191   8.251   5.386   4.499  0.4699  0.3788 -0.3307
18195THY    HM142192   8.258   5.352   4.395 -0.8358  0.3105 -0.4542
18195THY    HM242193   8.157   5.342   4.534 -0.2156 -2.2462 -1.1501
18195THY    HM342194   8.337   5.358   4.561  0.1667  0.8851 -0.1587
18195THY    CA642195   8.253   5.610   4.607  0.0405 -0.1641 -0.3349
18195THY    HA642196   8.290   5.558   4.694 -1.3846  1.4769  1.2523
18196THY      O42197   6.323   9.041   3.539 -0.6750  0.2247 -0.0049
18196THY     HO42198   6.304   8.951   3.509  0.6750 -0.4797 -0.0750
18196THY    CA142199   6.226   9.082   3.626  0.7466  0.0631 -0.5033
18196THY    CA242200   6.090   9.039   3.614 -0.7617 -0.4465 -0.3975
18196THY    CP142201   6.043   8.945   3.507  0.1890  0.0417  0.0298
18196THY    HP142202   6.127   8.926   3.438  1.3568  1.1248  1.0857
18196THY    CP242203   5.940   9.017   3.422  0.1940  0.5797 -0.0508
18196THY    HP242204   5.950   8.985   3.318 -1.4941  0.0727  0.9337
18196THY    HP342205   5.967   9.123   3.410 -1.7523 -0.5389  0.3555
18196THY    HP442206   5.839   9.001   3.461  0.2144  0.0231 -1.6898
18196THY    CP342207   6.009   8.805   3.553  0.3721 -0.5953  0.4043
18196THY    HP542208   6.090   8.759   3.611  1.7176 -2.0025  0.8931
18196THY    HP642209   5.995   8.734   3.471  0.1077  1.0351 -1.5350
18196THY    HP742210   5.918   8.806   3.614  0.9454  0.2817  2.4413
18196THY    CA342211   6.008   9.096   3.713  0.0285  0.9972  0.5948
18196THY    HA342212   5.905   9.060   3.716  0.2921  0.1971 -0.2563
18196THY    CA442213   6.051   9.183   3.812 -0.8504 -0.3779 -0.1611
18196THY    HA442214   5.985   9.223   3.888 -0.1685 -0.0683  0.3905
18196THY    CA542215   6.183   9.212   3.825 -0.5185 -0.2283  0.4526
18196THY    CM142216   6.241   9.283   3.946  0.0913  0.1064  0.3981
18196THY    HM142217   6.348   9.304   3.942  1.1583 -0.7790 -4.1222
18196THY    HM242218   6.233   9.230   4.042 -0.6874 -0.2187 -0.1030
18196THY    HM342219   6.190   9.379   3.940 -1.7941 -0.1393 -0.5647
18196THY    CA642220   6.273   9.172   3.724  0.5844 -0.9837  0.6523
18196THY    HA642221   6.380   9.187   3.732  0.5531  1.0815  0.1001
18197THY      O42222   8.161   5.457   7.858 -0.4201  0.5143 -0.2548
18197THY     HO42223   8.239   5.447   7.916  1.4146 -1.6201  0.9694
18197THY    CA142224   8.138   5.589   7.851  0.2595  0.2780  0.0913
18197THY    CA242225   8.044   5.647   7.760  0.4803  0.3963 -0.6639
18197THY    CP142226   7.963   5.567   7.657 -0.2282 -0.1708  0.2747
18197THY    HP142227   7.985   5.459   7.648 -1.3025 -0.8468  0.0877
18197THY    CP242228   7.975   5.627   7.519 -0.1718  0.5730 -0.8605
18197THY    HP242229   8.075   5.673   7.515 -0.9986 -0.0422  0.9813
18197THY    HP342230   7.900   5.703   7.493 -1.2605 -0.1795 -2.1526
18197THY    HP442231   7.976   5.542   7.449  0.0742  0.1863 -0.5456
18197THY    CP342232   7.823   5.545   7.714  0.2150  0.3995  0.4030
18197THY    HP542233   7.834   5.472   7.796  0.6167 -0.0754 -0.0747
18197THY    HP642234   7.761   5.487   7.645  0.0981  1.0641 -0.2963
18197THY    HP742235   7.774   5.632   7.759 -0.7096  0.2801 -0.0510
18197THY    CA342236   8.010   5.781   7.771  0.6185 -0.0766 -0.2532
18197THY    HA342237   7.932   5.825   7.710  1.3002 -0.3017  0.6651
18197THY    CA442238   8.074   5.863   7.865 -1.1028 -0.5282 -0.1125
18197THY    HA442239   8.053   5.970   7.865  0.7278 -0.4446  0.2809
18197THY    CA542240   8.167   5.801   7.956 -0.2479 -0.2467 -0.4486
18197THY    CM142241   8.246   5.889   8.051  0.3224 -0.3966 -0.1646
18197THY    HM142242   8.349   5.852   8.055 -0.2422 -1.2243 -1.9112
18197THY    HM242243   8.193   5.892   8.147  2.0891  0.6331 -0.4042
18197THY    HM342244   8.254   5.993   8.016 -0.8676 -0.4298 -0.0801
18197THY    CA642245   8.210   5.666   7.944  0.1464 -0.2883  0.2998
18197THY    HA642246   8.270   5.622   8.023 -3.5812  1.6062 -1.9071
18198THY      O42247   1.000   8.136   5.711  0.4435  0.4148  0.0333
18198THY     HO42248   0.949   8.156   5.791 -0.9888 -0.7573  1.3108
18198THY    CA142249   1.099   8.054   5.751 -0.9310 -0.2355 -0.0725
18198THY    CA242250   1.198   8.004   5.660  1.3956 -0.7300 -0.1272
18198THY    CP142251   1.204   8.060   5.525  0.3060  0.3265  0.1310
18198THY    HP142252   1.108   8.107   5.501  0.1226  0.0491 -0.3668
18198THY    CP242253   1.205   7.938   5.432 -0.5082 -0.4771  0.4067
18198THY    HP242254   1.174   7.972   5.332  0.4556 -0.8760  0.1574
18198THY    HP342255   1.125   7.870   5.463  0.3242  2.3498  0.6057
18198THY    HP442256   1.304   7.891   5.431 -1.1232  0.0107 -0.9397
18198THY    CP342257   1.323   8.142   5.497  0.6465  0.3368  0.5418
18198THY    HP542258   1.420   8.092   5.510  1.5087  0.6963  2.2081
18198THY    HP642259   1.321   8.241   5.544  3.2256 -0.4290  1.0535
18198THY    HP742260   1.322   8.171   5.392  2.8702  0.6193  1.9564
18198THY    CA342261   1.284   7.902   5.710 -0.6251 -0.1386 -0.3105
18198THY    HA342262   1.367   7.876   5.645  1.0101  2.1377 -1.1130
18198THY    CA442263   1.288   7.870   5.848  0.0429  0.2112 -0.0779
18198THY    HA442264   1.358   7.795   5.883  1.2247 -2.0673 -0.1294
18198THY    CA542265   1.191   7.926   5.932  0.0752 -0.0584 -0.9593
18198THY    CM142266   1.206   7.899   6.078  0.4895  0.3991 -0.4663
18198THY    HM142267   1.270   7.811   6.087  0.2276 -3.7520 -1.2659
18198THY    HM242268   1.116   7.864   6.129  0.4331  0.2528 -0.5377
18198THY    HM342269   1.251   7.982   6.133  1.7045 -0.0300 -0.8162
18198THY    CA642270   1.095   8.019   5.882 -0.2983 -0.1509  0.5339
18198THY    HA642271   1.026   8.062   5.954  0.1556  0.8135 -0.3145
18199THY      O42272   4.381   0.838   3.942 -0.1968 -0.3338 -0.1359
18199THY     HO42273   4.306   0.806   3.890 -0.3202 -0.2021 -0.0591
18199THY    CA142274   4.401   0.763   4.049 -0.0017  0.0980 -0.4528
18199THY    CA242275   4.509   0.788   4.133  0.8957 -0.2429  0.1356
18199THY    CP142276   4.612   0.897   4.102 -0.5883  1.0105 -0.2234
18199THY    HP142277   4.552   0.983   4.071 -0.2472  2.2576  0.5022
18199THY    CP242278   4.694   0.857   3.980  0.3985  0.1182  0.0260
18199THY    HP242279   4.733   0.942   3.923 -0.9251 -1.7347 -0.5504
18199THY    HP342280   4.631   0.801   3.909 -0.2405 -0.2461  1.1760
18199THY    HP442281   4.774   0.787   4.009 -0.5529 -0.7814 -1.4986
18199THY    CP342282   4.714   0.942   4.218  0.1204  0.4980  0.3840
18199THY    HP542283   4.653   0.954   4.308  1.5746  1.6181 -0.3019
18199THY    HP642284   4.759   1.037   4.186  0.9241 -0.6816 -0.3607
18199THY    HP742285   4.795   0.869   4.232  0.6198  1.6207  1.1235
18199THY    CA342286   4.510   0.712   4.249  0.1393 -0.1871 -0.2393
18199THY    HA342287   4.597   0.741   4.307 -0.7801 -0.2123  2.8522
18199THY    CA442288   4.422   0.609   4.273 -0.6714  0.0884  0.8610
18199THY    HA442289   4.423   0.547   4.363 -1.4698 -2.2521 -2.8857
18199THY    CA542290   4.327   0.578   4.182  0.6997  0.2516 -0.3793
18199THY    CM142291   4.233   0.460   4.195 -0.4910  0.0267 -0.3773
18199THY    HM142292   4.147   0.503   4.247  0.5292  1.1630  0.3540
18199THY    HM242293   4.281   0.376   4.246  1.4746 -1.0507  0.0240
18199THY    HM342294   4.195   0.420   4.100 -4.4180  0.1005  2.5594
18199THY    CA642295   4.309   0.657   4.070 -0.1172 -0.5370  0.1138
18199THY    HA642296   4.226   0.629   4.006  0.8972 -0.7178 -2.7930
18200THY      O42297   9.082   5.201   5.945 -0.6329  0.5856  0.7032
18200THY     HO42298   9.176   5.219   5.925 -0.4310  0.7530 -0.1235
18200THY    CA142299   9.090   5.067   5.927  0.1677  0.2276 -1.1166
18200THY    CA242300   9.013   4.981   6.008 -0.3431  0.0770 -0.0089
18200THY    CP142301   8.920   5.034   6.115 -0.6207  0.7246  0.3380
18200THY    HP142302   8.953   5.132   6.150 -1.1484 -1.4768  1.3721
18200THY    CP242303   8.906   4.952   6.242  0.2614  0.3514  0.0006
18200THY    HP242304   8.999   4.937   6.298  1.5689 -1.3356  1.3649
18200THY    HP342305   8.856   4.855   6.227  1.5685 -0.2188 -0.6159
18200THY    HP442306   8.842   5.011   6.307 -0.4595 -0.0250 -0.3587
18200THY    CP342307   8.787   5.061   6.054 -0.1523 -0.2831 -0.2012
18200THY    HP542308   8.787   5.142   5.980 -1.2518  0.0965  0.1651
18200THY    HP642309   8.712   5.086   6.130 -1.1673 -2.2416  3.3879
18200THY    HP742310   8.742   4.971   6.011 -1.7303  1.3032 -0.2146
18200THY    CA342311   9.022   4.840   5.980 -0.3991  0.8342 -0.0178
18200THY    HA342312   8.967   4.761   6.030 -0.8283  1.3529  0.6084
18200THY    CA442313   9.103   4.797   5.872  0.4232  0.1081  0.0105
18200THY    HA442314   9.112   4.693   5.839  0.1201 -2.6077  0.7522
18200THY    CA542315   9.173   4.884   5.789  0.3496  0.3386 -0.4890
18200THY    CM142316   9.231   4.842   5.656 -0.5066 -0.0688 -0.1147
18200THY    HM142317   9.181   4.889   5.571  0.8208  0.3093  2.1408
18200THY    HM242318   9.237   4.734   5.636 -0.7875  0.4818 -0.2398
18200THY    HM342319   9.330   4.884   5.634  0.2924 -2.7264 -3.0207
18200THY    CA642320   9.172   5.021   5.821  0.3607  0.6542  0.5523
18200THY    HA642321   9.227   5.098   5.767 -0.3738 -1.2054 -0.1732
18201THY      O42322   6.542   5.339   6.250  0.1621  0.0650  0.4168
18201THY     HO42323   6.490   5.351   6.331 -0.8683 -0.5288  0.0897
18201THY    CA142324   6.618   5.228   6.269  0.0202  0.7169  0.2325
18201THY    CA242325   6.687   5.167   6.160 -0.0637 -0.0086 -0.6254
18201THY    CP142326   6.707   5.243   6.031  0.3591 -0.3327  0.4822
18201THY    HP142327   6.665   5.343   6.044 -0.4636 -0.5472  0.1724
18201THY    CP242328   6.643   5.173   5.918  0.1902  0.4366 -0.3083
18201THY    HP242329   6.644   5.241   5.832 -3.3493 -0.0512 -0.6811
18201THY    HP342330   6.538   5.147   5.935  0.4194 -0.0139 -1.5689
18201THY    HP442331   6.692   5.080   5.889 -2.5864 -2.2196 -1.0963
18201THY    CP342332   6.852   5.273   6.006 -0.0587 -0.5323  0.5579
18201THY    HP542333   6.894   5.328   6.091  0.2125 -1.0664  1.1923
18201THY    HP642334   6.869   5.326   5.911  0.3151 -0.1316  1.1645
18201THY    HP742335   6.912   5.182   5.994  0.5161 -1.2117  1.0109
18201THY    CA342336   6.745   5.042   6.174  0.1103 -0.2911 -0.4259
18201THY    HA342337   6.797   5.000   6.088  0.6582 -0.5191  0.6832
18201THY    CA442338   6.740   4.976   6.294  0.4857 -0.0008  0.0591
18201THY    HA442339   6.788   4.880   6.307  0.8180  0.1195  0.2398
18201THY    CA542340   6.684   5.040   6.406 -0.7528  0.1498 -0.8090
18201THY    CM142341   6.672   4.957   6.527 -0.2177  0.5705 -0.0248
18201THY    HM142342   6.640   5.021   6.610 -2.9503 -1.7072  1.8150
18201THY    HM242343   6.765   4.902   6.547 -0.9117  0.8012 -1.1614
18201THY    HM342344   6.588   4.887   6.513  1.2371 -3.3303 -1.3092
18201THY    CA642345   6.618   5.162   6.389 -0.1819  0.9686  0.3240
18201THY    HA642346   6.569   5.209   6.474 -1.2653  0.0731  0.8407
18202THY      O42347   0.101   2.934   4.492  0.2965  0.1819  0.0652
18202THY     HO42348   0.031   2.928   4.560 -0.1647 -0.3777 -1.4691
18202THY    CA142349   0.217   2.951   4.562  0.4130  0.5670  0.0617
18202THY    CA242350   0.341   2.973   4.494 -0.3671  1.1451  0.0705
18202THY    CP142351   0.342   2.977   4.341  1.0043 -0.2342 -0.4007
18202THY    HP142352   0.254   3.032   4.306  1.6787  1.0224  1.6002
18202THY    CP242353   0.342   2.830   4.281  0.0457 -0.3829 -0.0442
18202THY    HP242354   0.437   2.776   4.292 -0.0696 -3.0181 -0.9442
18202THY    HP342355   0.321   2.820   4.174 -2.1057  0.0295 -0.4433
18202THY    HP442356   0.267   2.766   4.329 -1.1909  0.1842  1.7642
18202THY    CP342357   0.454   3.063   4.279  0.2598  0.1729 -0.8438
18202THY    HP542358   0.421   3.079   4.176 -1.7846  1.0085  0.9598
18202THY    HP642359   0.555   3.024   4.295  0.5737 -0.4062 -0.2953
18202THY    HP742360   0.453   3.165   4.319 -0.5479 -1.0742 -0.3398
18202THY    CA342361   0.455   3.006   4.565 -0.0501  0.1913 -0.2680
18202THY    HA342362   0.548   3.037   4.518 -0.8724  0.4566  2.9636
18202THY    CA442363   0.442   3.035   4.702  0.3633 -0.5252  0.4748
18202THY    HA442364   0.530   3.062   4.759  0.0754 -0.6686  1.7980
18202THY    CA542365   0.313   3.026   4.768 -0.3061 -0.2069 -0.0533
18202THY    CM142366   0.301   3.041   4.919  1.0707 -0.0940 -0.4498
18202THY    HM142367   0.401   3.035   4.964  1.2694 -0.6318 -1.5771
18202THY    HM242368   0.237   2.963   4.962 -0.9682 -0.9542  0.6725
18202THY    HM342369   0.267   3.143   4.939  0.9521  2.8601 -0.9873
18202THY    CA642370   0.200   2.979   4.698 -0.5120 -0.3215  0.1385
18202THY    HA642371   0.104   2.973   4.749  0.9101  2.7417  1.1725
18203THY      O42372   7.139   3.806   5.262  0.7272  0.0232  0.5207
18203THY     HO42373   7.159   3.838   5.352  2.7486  0.3632 -1.4605
18203THY    CA142374   7.131   3.674   5.275 -0.0881  0.1105 -0.0464
18203THY    CA242375   7.063   3.588   5.190  1.0396  0.8648 -0.4456
18203THY    CP142376   6.995   3.644   5.072  0.2478  0.0256 -0.0257
18203THY    HP142377   7.048   3.737   5.050  1.9211 -0.5434 -1.0696
18203THY    CP242378   6.853   3.683   5.105 -0.7195 -0.2701  0.2155
18203THY    HP242379   6.846   3.742   5.197 -0.8604 -0.1607  0.0298
18203THY    HP342380   6.803   3.587   5.124 -1.5402 -1.5183  0.3671
18203THY    HP442381   6.803   3.734   5.022  2.0597 -1.3061  1.4229
18203THY    CP342382   6.994   3.555   4.945 -0.5344  0.6150  0.2924
18203THY    HP542383   6.953   3.455   4.964 -0.4073  1.1361  0.3405
18203THY    HP642384   7.094   3.528   4.908 -1.0051  0.0129 -0.6969
18203THY    HP742385   6.950   3.610   4.861 -1.1191  1.6692  1.4737
18203THY    CA342386   7.042   3.451   5.225  0.4822 -0.4872  0.2764
18203THY    HA342387   6.973   3.396   5.163 -0.2079 -0.5293  1.1582
18203THY    CA442388   7.100   3.400   5.346  0.0789 -0.2159 -0.4962
18203THY    HA442389   7.089   3.298   5.382  2.1963 -0.8945 -1.0165
18203THY    CA542390   7.176   3.488   5.421 -0.0259 -0.3400  0.5216
18203THY    CM142391   7.228   3.447   5.556 -0.9895 -0.8723  0.2980
18203THY    HM142392   7.238   3.536   5.619  0.9678  1.3070 -1.3102
18203THY    HM242393   7.324   3.395   5.545 -1.3034 -0.2318 -0.4448
18203THY    HM342394   7.160   3.382   5.613 -0.7786 -0.3066  0.5618
18203THY    CA642395   7.196   3.619   5.385  0.2791  0.2568  0.0368
18203THY    HA642396   7.244   3.686   5.456  0.4945  0.1506 -0.0021
18204THY      O42397   3.255   0.770   4.476 -0.0658  0.4470  0.4888
18204THY     HO42398   3.317   0.698   4.499  0.3355  0.5932  0.8743
18204THY    CA142399   3.331   0.863   4.429 -0.7586  0.5170 -0.1527
18204THY    CA242400   3.293   0.947   4.320  0.2894  0.1449  0.1405
18204THY    CP142401   3.163   0.918   4.237  0.0739 -0.2993  0.3494
18204THY    HP142402   3.103   0.835   4.273 -0.3940  0.4244  0.9852
18204THY    CP242403   3.194   0.892   4.088  0.6456  0.2034 -0.0649
18204THY    HP242404   3.249   0.973   4.039 -2.2047 -0.2658  1.7527
18204THY    HP342405   3.102   0.881   4.029  0.3989  0.6034 -0.1955
18204THY    HP442406   3.257   0.803   4.085  0.9076 -4.4598  0.0586
18204THY    CP342407   3.063   1.035   4.243  0.0899 -0.0919 -0.6726
18204THY    HP542408   2.974   1.009   4.185  0.6077 -0.5707 -1.4010
18204THY    HP642409   3.108   1.121   4.192  0.3153  0.8717 -0.2019
18204THY    HP742410   3.033   1.070   4.343  1.4839  1.3576 -3.2835
18204THY    CA342411   3.391   1.042   4.273  0.7854 -0.0653  0.4470
18204THY    HA342412   3.362   1.120   4.204  0.8800  1.4144  1.8296
18204THY    CA442413   3.518   1.055   4.329  0.1335 -0.1565  0.4411
18204THY    HA442414   3.580   1.133   4.286 -1.0658  1.0898  2.1723
18204THY    CA542415   3.548   0.973   4.439 -0.2218  0.4503  0.1773
18204THY    CM142416   3.679   0.997   4.506 -0.0330 -0.1591  0.1406
18204THY    HM142417   3.741   0.908   4.489 -0.8384  3.3415 -1.2159
18204THY    HM242418   3.673   1.002   4.615  2.1859  0.2686 -3.2083
18204THY    HM342419   3.741   1.078   4.464  0.8204 -0.2856 -0.5649
18204THY    CA642420   3.458   0.875   4.487 -0.1255  0.2261 -0.7800
18204THY    HA642421   3.474   0.814   4.576 -1.1666  1.0721  0.1478
18205THY      O42422   8.487   4.606   5.975  0.1241  0.4671  0.6834
18205THY     HO42423   8.571   4.655   5.977  1.3199  1.9420 -1.2887
18205THY    CA142424   8.389   4.694   5.993 -0.1662  0.0103  0.0748
18205THY    CA242425   8.251   4.660   5.976 -0.2193 -0.0315  0.5167
18205THY    CP142426   8.201   4.519   5.934 -0.5540  0.1175 -0.0888
18205THY    HP142427   8.291   4.460   5.951  0.1467 -2.4201  0.1253
18205THY    CP242428   8.156   4.506   5.785 -0.1542 -0.0746  1.1320
18205THY    HP242429   8.241   4.521   5.717  0.7339  0.7500 -0.0087
18205THY    HP342430   8.088   4.585   5.752 -2.4477 -0.1901 -0.7806
18205THY    HP442431   8.100   4.413   5.769  0.7959  3.1536 -0.1371
18205THY    CP342432   8.092   4.473   6.033 -0.9747 -0.1777 -0.4183
18205THY    HP542433   8.123   4.482   6.138 -0.6130 -0.4684  2.7832
18205THY    HP642434   8.069   4.366   6.021  1.5565 -2.3250 -0.8053
18205THY    HP742435   7.997   4.527   6.026 -0.5365  0.3033  0.4379
18205THY    CA342436   8.155   4.760   5.997 -0.4670  0.0974 -0.6102
18205THY    HA342437   8.052   4.731   5.980 -0.4126 -0.2268 -0.6097
18205THY    CA442438   8.194   4.896   6.038  0.6567 -0.4033  0.2928
18205THY    HA442439   8.119   4.972   6.055  0.3414  0.3874 -0.1798
18205THY    CA542440   8.325   4.925   6.061 -0.3721 -0.0019 -0.1952
18205THY    CM142441   8.367   5.058   6.114 -0.2981 -0.2006  0.3508
18205THY    HM142442   8.304   5.139   6.077 -3.3625 -0.7340 -2.0597
18205THY    HM242443   8.462   5.091   6.071  1.1417 -0.0656 -3.1600
18205THY    HM342444   8.370   5.052   6.224 -0.8838 -0.2400 -1.3734
18205THY    CA642445   8.420   4.824   6.043  0.3998  0.0802  0.1106
18205THY    HA642446   8.526   4.848   6.045  0.9182 -0.3211 -1.9827
18206THY      O42447   0.607   6.777   3.861  0.2307  0.2232 -0.2965
18206THY     HO42448   0.559   6.772   3.776  0.5279 -0.0012  0.5967
18206THY    CA142449   0.557   6.889   3.909 -0.3476 -0.1078 -0.1458
18206THY    CA242450   0.501   6.881   4.037 -0.0993  0.3135 -0.6197
18206THY    CP142451   0.512   6.759   4.132  0.0449  0.4487 -0.4713
18206THY    HP142452   0.535   6.662   4.087  1.2101  1.6004 -0.7619
18206THY    CP242453   0.385   6.729   4.224 -0.0488  0.4047  0.0178
18206THY    HP242454   0.290   6.730   4.168  0.1651  0.0075  1.8160
18206THY    HP342455   0.372   6.810   4.296  0.9798 -0.2932  0.8352
18206THY    HP442456   0.389   6.639   4.286 -0.2977 -0.3088 -0.4928
18206THY    CP342457   0.631   6.772   4.228 -0.0449 -0.0057  0.2219
18206THY    HP542458   0.628   6.875   4.264 -0.9931  1.7082 -0.3637
18206THY    HP642459   0.722   6.732   4.183 -0.7396 -1.4541  0.2024
18206THY    HP742460   0.620   6.706   4.315 -0.2214  0.1181  0.4127
18206THY    CA342461   0.429   6.997   4.075  0.4395 -1.2745  0.3723
18206THY    HA342462   0.390   7.003   4.176 -0.2116 -1.4153 -1.0599
18206THY    CA442463   0.436   7.114   3.997 -0.1178 -0.8027  0.3502
18206THY    HA442464   0.390   7.202   4.040  0.1212  1.7981 -0.7034
18206THY    CA542465   0.486   7.115   3.871  0.0353  0.3631 -0.5018
18206THY    CM142466   0.466   7.235   3.779 -0.3236  0.9305  0.0705
18206THY    HM142467   0.437   7.199   3.680  1.1354  0.4294  0.2099
18206THY    HM242468   0.564   7.283   3.766 -0.3060 -2.1322 -0.6079
18206THY    HM342469   0.398   7.310   3.822  0.3644  1.1818  0.5623
18206THY    CA642470   0.551   7.003   3.826 -0.1639 -0.0104  0.5726
18206THY    HA642471   0.596   7.003   3.727  0.1764  0.1439  0.4162
18207THY      O42472   6.933   6.279   5.564  0.0679 -0.6034 -0.5112
18207THY     HO42473   6.919   6.211   5.632  1.0492  0.8108  0.6440
18207THY    CA142474   6.985   6.217   5.461  0.0778  0.6789 -0.4559
18207THY    CA242475   6.971   6.077   5.435  1.0249  0.1081  0.2582
18207THY    CP142476   6.893   5.994   5.531  0.0415 -0.2573  0.0219
18207THY    HP142477   6.840   6.059   5.602  2.8292  2.6228 -0.6027
18207THY    CP242478   6.975   5.912   5.623 -0.0607 -0.3670  0.2613
18207THY    HP242479   6.929   5.831   5.680 -0.2225  2.0510  1.9114
18207THY    HP342480   7.026   5.980   5.693 -1.7117  1.3440 -0.1705
18207THY    HP442481   7.053   5.864   5.563  0.2015  0.7109 -0.6969
18207THY    CP342482   6.793   5.913   5.456  0.2025  0.0304  0.2181
18207THY    HP542483   6.843   5.841   5.391  2.8992 -0.3708  2.2657
18207THY    HP642484   6.738   5.973   5.382  1.5564 -0.8721  0.3943
18207THY    HP742485   6.735   5.863   5.534  0.9549 -0.8549 -2.1892
18207THY    CA342486   7.040   6.014   5.332 -0.9463 -0.2961 -0.1481
18207THY    HA342487   7.039   5.907   5.312 -1.5129 -3.7483  0.3899
18207THY    CA442488   7.115   6.098   5.244 -0.1357  0.4330  0.5017
18207THY    HA442489   7.167   6.048   5.162 -0.9341  0.8089 -1.0169
18207THY    CA542490   7.125   6.235   5.268  0.0151 -0.0168  0.7293
18207THY    CM142491   7.208   6.324   5.176  0.2075 -0.2696 -0.1521
18207THY    HM142492   7.254   6.255   5.105  1.7266  0.3716  0.1735
18207THY    HM242493   7.283   6.379   5.234  0.2093 -0.1551 -0.2742
18207THY    HM342494   7.143   6.391   5.119 -1.1294  2.5816  1.1660
18207THY    CA642495   7.065   6.297   5.371  0.3126 -0.1171  1.2353
18207THY    HA642496   7.081   6.403   5.391  0.2420  3.1597  0.7177
18208THY      O42497   3.237   5.668   4.668  0.3653  0.2863 -0.5715
18208THY     HO42498   3.330   5.658   4.642  0.4065 -0.5485  1.4795
18208THY    CA142499   3.188   5.777   4.596 -0.3216 -0.0112 -0.5453
18208THY    CA242500   3.172   5.907   4.646 -0.3930 -0.5772 -0.4861
18208THY    CP142501   3.220   5.918   4.797  0.4607  0.0611 -1.2121
18208THY    HP142502   3.315   5.863   4.802 -0.0186 -2.0220 -2.3536
18208THY    CP242503   3.121   5.860   4.902 -0.1602 -0.2086 -0.0715
18208THY    HP242504   3.052   5.791   4.853  0.1573  2.0349 -2.1255
18208THY    HP342505   3.064   5.944   4.944  0.1711 -1.4551  0.8160
18208THY    HP442506   3.176   5.813   4.985  0.9065 -1.4784 -1.1422
18208THY    CP342507   3.251   6.064   4.835 -0.0254  0.3491  0.3747
18208THY    HP542508   3.314   6.100   4.753  0.3017  0.4824  0.1111
18208THY    HP642509   3.308   6.062   4.928  0.5198  0.0273 -1.8774
18208THY    HP742510   3.162   6.127   4.842 -1.3270  2.1943 -1.5362
18208THY    CA342511   3.141   6.014   4.566 -0.0220  0.5037 -0.6819
18208THY    HA342512   3.130   6.115   4.602 -0.7071 -0.5950 -0.3469
18208THY    CA442513   3.110   5.990   4.433 -0.1382  0.2048  0.0616
18208THY    HA442514   3.072   6.075   4.376  0.4003 -1.9328 -1.0635
18208THY    CA542515   3.116   5.862   4.382 -0.4071  0.1672 -0.0488
18208THY    CM142516   3.093   5.834   4.238  0.2465  0.5682 -0.1442
18208THY    HM142517   3.059   5.927   4.189  0.8815 -1.4556 -0.9206
18208THY    HM242518   3.012   5.763   4.217 -0.0296  1.5518 -0.1303
18208THY    HM342519   3.187   5.801   4.193 -1.3382 -2.6711 -0.7090
18208THY    CA642520   3.156   5.756   4.463  0.3211 -0.2441 -0.1184
18208THY    HA642521   3.183   5.662   4.416  2.2811 -2.9736  1.6538
18209THY      O42522   1.090   3.324   6.472  0.0625  0.4266  0.3575
18209THY     HO42523   1.141   3.244   6.456 -1.5823 -0.4552 -0.5797
18209THY    CA142524   1.084   3.343   6.603 -0.0020 -0.0891 -0.3794
18209THY    CA242525   1.042   3.459   6.667 -0.0598 -0.1396 -0.6721
18209THY    CP142526   1.011   3.583   6.590 -0.3720  0.3916 -0.5759
18209THY    HP142527   0.990   3.563   6.485  0.0657 -0.3990  2.5789
18209THY    CP242528   1.138   3.674   6.583  0.0161 -0.3324 -0.3650
18209THY    HP242529   1.181   3.713   6.676  1.6334 -2.2834  2.9253
18209THY    HP342530   1.095   3.755   6.524 -0.3592  0.6641  0.1804
18209THY    HP442531   1.226   3.628   6.535  0.8614  0.8268 -0.0128
18209THY    CP342532   0.877   3.656   6.638 -0.1855  0.9496  0.4988
18209THY    HP542533   0.789   3.592   6.623 -0.4779  1.4956  0.7710
18209THY    HP642534   0.863   3.746   6.575 -1.3706 -1.2388 -1.0957
18209THY    HP742535   0.886   3.690   6.741  0.8697  0.1664  2.8466
18209THY    CA342536   1.031   3.464   6.811  0.3105  0.1908 -0.4629
18209THY    HA342537   1.011   3.558   6.861 -0.3485  0.0234 -0.5032
18209THY    CA442538   1.051   3.344   6.877 -0.0406 -0.1905 -0.9765
18209THY    HA442539   1.051   3.350   6.986  2.3631  0.0215 -2.9729
18209THY    CA542540   1.100   3.235   6.816  0.2794 -0.4017  0.6064
18209THY    CM142541   1.133   3.113   6.897  0.1228  0.0521  0.1205
18209THY    HM142542   1.051   3.041   6.886  0.8157 -1.4940 -0.4728
18209THY    HM242543   1.167   3.150   6.994  1.0700 -0.9495  2.0542
18209THY    HM342544   1.222   3.056   6.868 -2.1583 -0.7833 -3.2765
18209THY    CA642545   1.117   3.232   6.676  0.2955  0.3819  0.7140
18209THY    HA642546   1.139   3.135   6.631 -0.8715  1.7023 -0.2050
18210THY      O42547   5.609   4.819   4.766  0.6657 -0.2169 -0.4737
18210THY     HO42548   5.687   4.844   4.714  0.1263 -0.4803  0.7296
18210THY    CA142549   5.508   4.829   4.675  1.4842 -0.8864  0.0824
18210THY    CA242550   5.371   4.798   4.712 -0.2120 -0.0629 -0.6065
18210THY    CP142551   5.324   4.771   4.860 -0.7604  0.2216 -0.1988
18210THY    HP142552   5.403   4.786   4.935 -0.2647 -0.3688  0.2320
18210THY    CP242553   5.270   4.630   4.881  0.3081 -0.3904  0.1593
18210THY    HP242554   5.281   4.592   4.983  0.7036 -0.9420 -1.2875
18210THY    HP342555   5.333   4.556   4.830 -1.2225 -0.3757 -1.2146
18210THY    HP442556   5.173   4.598   4.841  2.6559 -3.7358 -3.7395
18210THY    CP342557   5.217   4.860   4.899 -0.1268 -0.7178 -0.0922
18210THY    HP542558   5.249   4.963   4.883 -0.1656  0.6775  0.1559
18210THY    HP642559   5.184   4.849   5.003 -0.8586 -0.9511 -0.1580
18210THY    HP742560   5.124   4.843   4.845 -0.7696  0.1280  0.6378
18210THY    CA342561   5.277   4.788   4.606  0.7825  0.2013 -0.1434
18210THY    HA342562   5.172   4.769   4.626  0.4609  1.0524  2.2816
18210THY    CA442563   5.319   4.818   4.477 -0.0880 -0.0840 -0.1086
18210THY    HA442564   5.247   4.820   4.396  0.5814 -0.7008  2.0796
18210THY    CA542565   5.451   4.848   4.442 -0.1916  0.1767 -0.2217
18210THY    CM142566   5.482   4.881   4.297  0.1375  0.2081 -0.0690
18210THY    HM142567   5.493   4.791   4.235 -1.9963  0.7053 -0.7388
18210THY    HM242568   5.570   4.945   4.293  1.0701 -0.1376 -1.3264
18210THY    HM342569   5.395   4.932   4.254 -1.5237  3.0887 -0.2341
18210THY    CA642570   5.546   4.851   4.548 -0.1134  0.2540  0.2273
18210THY    HA642571   5.649   4.881   4.532  0.8530  0.8768 -2.4370
18211THY      O42572   6.928   0.635   5.961 -0.7170 -0.3087  0.2208
18211THY     HO42573   6.941   0.709   6.023  0.4498  1.0541 -1.0631
18211THY    CA142574   6.876   0.681   5.846 -0.3037 -0.1317  0.0638
18211THY    CA242575   6.850   0.589   5.740 -0.7041 -0.2252  0.2800
18211THY    CP142576   6.904   0.446   5.750 -0.2775  0.9458 -0.2172
18211THY    HP142577   6.951   0.419   5.845  0.1301  0.6006 -0.7702
18211THY    CP242578   7.014   0.419   5.642 -0.0911  0.2072  0.2391
18211THY    HP242579   7.053   0.317   5.647 -3.7013  1.4351 -1.2113
18211THY    HP342580   7.092   0.493   5.663 -1.4380  0.9292  1.4944
18211THY    HP442581   6.979   0.429   5.539 -1.0570  0.5977  1.0282
18211THY    CP342582   6.786   0.343   5.731 -1.3964  0.2192  0.1072
18211THY    HP542583   6.748   0.338   5.628  0.6197 -0.5640 -0.0030
18211THY    HP642584   6.703   0.375   5.795 -0.3877  1.4300  0.3890
18211THY    HP742585   6.816   0.243   5.766 -2.6681  2.0126  0.2979
18211THY    CA342586   6.781   0.638   5.629 -0.0286  0.0380  0.0549
18211THY    HA342587   6.762   0.575   5.543 -0.0901 -0.3767  0.6291
18211THY    CA442588   6.723   0.766   5.642 -0.1106 -0.4095  0.3573
18211THY    HA442589   6.656   0.809   5.568 -2.8380  0.9569 -1.2813
18211THY    CA542590   6.764   0.855   5.740  0.2439  0.9542 -0.1045
18211THY    CM142591   6.730   0.999   5.723 -0.3592  0.3531 -0.9956
18211THY    HM142592   6.809   1.042   5.661 -2.2147 -1.4684 -0.0669
18211THY    HM242593   6.717   1.056   5.816 -2.0675 -0.8053  0.6269
18211THY    HM342594   6.637   1.019   5.669 -0.0320  0.9204  2.8971
18211THY    CA642595   6.840   0.816   5.845 -0.3013 -0.1200 -0.1442
18211THY    HA642596   6.862   0.882   5.928 -1.0449  0.0265 -0.0743
18212THY      O42597   6.174   1.367   2.446 -0.6665  0.1518 -0.1869
18212THY     HO42598   6.207   1.423   2.374 -1.0305  0.1370  0.0072
18212THY    CA142599   6.280   1.341   2.527 -0.3514 -0.3632  1.0910
18212THY    CA242600   6.272   1.281   2.655  0.4757  0.2399 -1.0785
18212THY    CP142601   6.138   1.251   2.720 -0.6746  0.7252  0.0546
18212THY    HP142602   6.066   1.254   2.638  0.3188 -0.1560  0.4527
18212THY    CP242603   6.101   1.366   2.822  0.1710 -1.1467 -0.4830
18212THY    HP242604   6.115   1.467   2.782 -2.8422 -3.3647 -0.8027
18212THY    HP342605   6.174   1.351   2.903 -0.3592 -0.8457 -1.5820
18212THY    HP442606   5.999   1.353   2.862  0.1683 -1.7806 -3.0419
18212THY    CP342607   6.136   1.112   2.779 -0.0939 -0.5771 -0.3877
18212THY    HP542608   6.032   1.098   2.809  0.3130  2.7979  2.4316
18212THY    HP642609   6.206   1.111   2.863  1.2307 -1.6369 -1.5849
18212THY    HP742610   6.167   1.037   2.706  1.1523 -0.8284  0.3353
18212THY    CA342611   6.400   1.253   2.717  0.3614 -0.3822 -0.3468
18212THY    HA342612   6.404   1.204   2.814  1.1614 -0.4453 -0.4141
18212THY    CA442613   6.519   1.293   2.662 -0.3617  0.3768  0.3386
18212THY    HA442614   6.613   1.274   2.714  0.8252 -1.0035  2.1165
18212THY    CA542615   6.516   1.363   2.544  0.1171  0.3491 -0.0181
18212THY    CM142616   6.656   1.395   2.487 -0.2164  0.9102 -0.0339
18212THY    HM142617   6.655   1.504   2.478  1.5740  2.0515  0.1047
18212THY    HM242618   6.669   1.353   2.387  3.0371  0.7588  1.1007
18212THY    HM342619   6.722   1.362   2.568 -0.0428  0.5137 -0.6940
18212THY    CA642620   6.400   1.380   2.473  0.3655  0.5461 -0.3431
18212THY    HA642621   6.409   1.427   2.375  1.9504  1.7070  1.9213
18213THY      O42622   6.238   4.191   2.644 -0.1353 -0.1961  0.1763
18213THY     HO42623   6.191   4.108   2.625  2.0426 -0.0721 -1.1666
18213THY    CA142624   6.352   4.165   2.568  0.0362  0.1603 -0.5704
18213THY    CA242625   6.407   4.264   2.489  0.1172 -0.4254 -0.0293
18213THY    CP142626   6.350   4.405   2.490 -0.0190 -0.1433 -0.2022
18213THY    HP142627   6.266   4.418   2.560  0.9397  1.1029 -0.4337
18213THY    CP242628   6.296   4.423   2.348  0.2667  0.2086 -0.1811
18213THY    HP242629   6.374   4.406   2.272  0.2711  0.2241 -0.2338
18213THY    HP342630   6.259   4.525   2.331  1.6744 -0.1281  0.2963
18213THY    HP442631   6.224   4.352   2.305  1.3615 -3.1527  0.5375
18213THY    CP342632   6.449   4.519   2.511 -0.0158  0.3887  0.3980
18213THY    HP542633   6.398   4.614   2.491  0.9951  1.4296  1.1925
18213THY    HP642634   6.525   4.511   2.433  0.4348  0.9434 -1.3945
18213THY    HP742635   6.496   4.513   2.610 -0.2569  0.5922  1.7043
18213THY    CA342636   6.510   4.226   2.403 -0.0822 -0.0235 -0.2163
18213THY    HA342637   6.556   4.298   2.336 -0.0905  1.7900  1.5958
18213THY    CA442638   6.557   4.097   2.400  0.0412  0.8688  0.4281
18213THY    HA442639   6.646   4.074   2.343  0.4320  2.1149 -1.3840
18213THY    CA542640   6.493   3.998   2.477 -0.9445 -0.2216 -0.0157
18213THY    CM142641   6.556   3.860   2.469 -0.8950  0.0799 -0.7486
18213THY    HM142642   6.572   3.819   2.569  1.1988  1.5413  3.1382
18213THY    HM242643   6.651   3.859   2.414 -0.7675  0.3006 -1.5056
18213THY    HM342644   6.497   3.792   2.405  2.0874 -0.9692 -2.5657
18213THY    CA642645   6.393   4.030   2.567 -0.2673  0.6463 -0.3886
18213THY    HA642646   6.348   3.955   2.632  2.1732 -0.8425 -3.3686
18214THY      O42647   5.952   6.559   6.927 -0.4169 -0.6972 -0.2246
18214THY     HO42648   5.872   6.605   6.959 -1.2890 -4.8213  1.5061
18214THY    CA142649   5.975   6.463   7.025 -0.4851  0.6482 -1.0147
18214THY    CA242650   6.053   6.349   6.996 -0.2740  0.0942  0.0085
18214THY    CP142651   6.126   6.338   6.868 -0.7725  0.2236  0.1444
18214THY    HP142652   6.143   6.437   6.824 -0.6105 -0.0179  0.0104
18214THY    CP242653   6.051   6.255   6.762 -0.4035  0.1827 -0.1647
18214THY    HP242654   5.962   6.312   6.733  2.0909 -3.1908  2.4788
18214THY    HP342655   6.024   6.154   6.795 -0.0438 -2.0654 -1.0564
18214THY    HP442656   6.102   6.248   6.665 -0.2800  0.1663  0.8161
18214THY    CP342657   6.272   6.293   6.889 -0.9351  0.2504  0.1304
18214THY    HP542658   6.304   6.336   6.984 -1.5777  0.5987 -0.1443
18214THY    HP642659   6.341   6.316   6.807  0.1576  0.6069 -1.6357
18214THY    HP742660   6.281   6.184   6.896  1.6246  0.8691  0.3270
18214THY    CA342661   6.054   6.251   7.098  0.6064 -0.2446  0.7320
18214THY    HA342662   6.107   6.158   7.082 -0.8074  1.7353 -0.4938
18214THY    CA442663   5.965   6.264   7.212  0.1814  0.8489 -0.2557
18214THY    HA442664   5.957   6.178   7.278 -0.5760  0.6609 -0.3328
18214THY    CA542665   5.884   6.377   7.230  0.2387 -0.6352 -0.0326
18214THY    CM142666   5.799   6.384   7.348  0.2254  0.1244  0.5710
18214THY    HM142667   5.857   6.392   7.440 -0.7664  0.7234  1.0983
18214THY    HM242668   5.729   6.300   7.352 -0.0862 -0.1603  0.8136
18214THY    HM342669   5.740   6.476   7.348 -1.6362  1.9700 -0.5206
18214THY    CA642670   5.894   6.474   7.136  0.4545  0.3694 -0.4652
18214THY    HA642671   5.848   6.569   7.157 -2.4575  1.4373 -1.9978
18215THY      O42672   8.850   7.487   3.261  0.2450 -0.2434 -0.0488
18215THY     HO42673   8.765   7.467   3.304 -0.2607 -1.8297 -1.6821
18215THY    CA142674   8.894   7.592   3.334 -0.0740  0.1456 -0.6290
18215THY    CA242675   8.985   7.694   3.281  0.5212  0.6040  0.6158
18215THY    CP142676   9.010   7.696   3.129 -0.1917  0.9493  0.2033
18215THY    HP142677   8.939   7.636   3.071  0.7827 -1.6407  1.3605
18215THY    CP242678   9.146   7.636   3.099 -0.1019  0.4099  0.4884
18215THY    HP242679   9.220   7.699   3.149  0.8926 -0.2854 -0.0882
18215THY    HP342680   9.171   7.649   2.993 -2.7406 -0.3831 -0.2733
18215THY    HP442681   9.155   7.532   3.132  0.1828  1.5468  0.8604
18215THY    CP342682   8.986   7.831   3.063  0.5338 -0.3441  0.2431
18215THY    HP542683   8.883   7.860   3.089 -0.0968  0.2100 -2.2270
18215THY    HP642684   9.001   7.834   2.954  0.9170 -0.2778  1.0245
18215THY    HP742685   9.054   7.910   3.096  0.4506 -2.1942  1.1636
18215THY    CA342686   9.047   7.781   3.371  0.2904 -0.7752 -0.2466
18215THY    HA342687   9.123   7.855   3.348  1.1533  1.9005 -0.1980
18215THY    CA442688   9.008   7.777   3.507 -0.1579  0.9175 -0.3187
18215THY    HA442689   9.050   7.855   3.570  1.1913 -0.7201  0.3346
18215THY    CA542690   8.920   7.681   3.552  0.3276 -0.2161  0.0114
18215THY    CM142691   8.889   7.675   3.697  0.3534 -0.1139 -0.4777
18215THY    HM142692   8.976   7.697   3.760 -0.5276  1.2062 -0.6353
18215THY    HM242693   8.849   7.577   3.725  0.8370 -1.2028 -1.0088
18215THY    HM342694   8.811   7.748   3.722 -0.2775 -0.6362 -0.9556
18215THY    CA642695   8.869   7.585   3.471  0.1806 -0.4119 -0.2267
18215THY    HA642696   8.797   7.515   3.512 -1.1113 -0.0505  1.2495
18216THY      O42697   0.866   7.696   4.849 -0.5069 -0.2333 -0.5398
18216THY     HO42698   0.937   7.636   4.822 -0.5892 -0.0243 -0.7367
18216THY    CA142699   0.768   7.664   4.763  0.0691  0.9210  0.0610
18216THY    CA242700   0.643   7.739   4.752  0.0659 -0.0419  0.1586
18216THY    CP142701   0.607   7.851   4.850 -0.6816  0.8131  0.3940
18216THY    HP142702   0.683   7.862   4.929 -1.3169  1.8917 -2.2144
18216THY    CP242703   0.489   7.818   4.933 -0.2388  0.2022  0.1821
18216THY    HP242704   0.474   7.892   5.013 -0.8158  0.5201 -0.2624
18216THY    HP342705   0.505   7.730   4.996 -0.0044  0.5824  0.4947
18216THY    HP442706   0.395   7.799   4.879 -1.4505  2.5836 -1.0798
18216THY    CP342707   0.593   7.986   4.785  0.1726  0.1992 -0.3967
18216THY    HP542708   0.670   8.009   4.710  0.7930  0.3178 -2.0000
18216THY    HP642709   0.599   8.074   4.850 -1.5313 -0.0450 -0.0585
18216THY    HP742710   0.494   7.990   4.738  0.9624 -1.4978  0.5624
18216THY    CA342711   0.552   7.702   4.649 -0.9289  0.2345  0.2370
18216THY    HA342712   0.463   7.765   4.645 -0.5594 -0.2472  0.7389
18216THY    CA442713   0.586   7.596   4.563 -0.1816  0.2615 -0.3856
18216THY    HA442714   0.526   7.568   4.477 -0.6138  1.0381 -1.9829
18216THY    CA542715   0.708   7.530   4.558  0.0097 -0.3636 -0.4082
18216THY    CM142716   0.748   7.433   4.454 -0.0855  0.4725  0.0469
18216THY    HM142717   0.814   7.358   4.499  2.5578  0.0333  1.9799
18216THY    HM242718   0.804   7.479   4.372 -3.4135 -1.2768  1.3184
18216THY    HM342719   0.664   7.392   4.397 -0.4587  2.0561 -1.5083
18216THY    CA642720   0.797   7.567   4.664 -0.5442 -0.0183 -0.0987
18216THY    HA642721   0.893   7.518   4.661 -0.8033 -2.6417 -0.5725
18217THY      O42722   5.977   7.937   7.112 -0.3016  0.4700 -0.1022
18217THY     HO42723   6.042   7.953   7.042 -0.8699 -0.2418 -0.8220
18217THY    CA142724   5.984   8.041   7.204 -0.1141  0.8228 -0.3508
18217THY    CA242725   5.913   8.028   7.328 -0.7432 -0.6145 -0.1315
18217THY    CP142726   5.823   7.912   7.351 -0.0927 -0.7430  0.3651
18217THY    HP142727   5.825   7.845   7.265 -0.4270 -0.2766 -0.2572
18217THY    CP242728   5.680   7.962   7.364  0.6101  0.3604 -0.1341
18217THY    HP242729   5.645   8.003   7.459 -0.2644  0.5192 -1.2092
18217THY    HP342730   5.608   7.882   7.343 -0.8943  2.5082  0.5864
18217THY    HP442731   5.656   8.029   7.280 -0.8344  0.0789 -0.9680
18217THY    CP342732   5.868   7.826   7.478  0.3765  0.5174  0.8392
18217THY    HP542733   5.968   7.784   7.462  0.3798 -1.9944  1.6530
18217THY    HP642734   5.804   7.738   7.491  2.0813  1.7141 -0.2658
18217THY    HP742735   5.854   7.882   7.572 -0.0930  1.2160 -0.4181
18217THY    CA342736   5.933   8.132   7.427  0.4727 -0.2317 -0.6370
18217THY    HA342737   5.899   8.125   7.530  0.8314  0.0052  0.8614
18217THY    CA442738   6.011   8.245   7.392  0.1647 -0.6570 -0.4979
18217THY    HA442739   6.025   8.324   7.465 -2.4226 -1.7295  1.0912
18217THY    CA542740   6.076   8.253   7.269  0.3888  0.1231  0.2875
18217THY    CM142741   6.163   8.365   7.238  0.4747 -0.0380  0.0219
18217THY    HM142742   6.124   8.433   7.161  0.6068 -1.8503 -1.8592
18217THY    HM242743   6.254   8.336   7.183  0.9321 -1.9100  4.2075
18217THY    HM342744   6.190   8.436   7.317  1.0029  0.8654 -1.1541
18217THY    CA642745   6.054   8.155   7.169  0.5545 -0.2902  0.4929
18217THY    HA642746   6.100   8.166   7.071  0.6481 -0.5689 -1.9750
18218THY      O42747   1.853   4.981   4.547  0.6119 -0.1856 -0.0932
18218THY     HO42748   1.815   4.918   4.483  0.1388 -1.4932  1.4551
18218THY    CA142749   1.767   5.092   4.548 -0.3270  0.1602  0.6797
18218THY    CA242750   1.706   5.136   4.666 -0.4132  0.3533 -1.1792
18218THY    CP142751   1.736   5.074   4.801  0.3866 -0.3695  0.2890
18218THY    HP142752   1.804   4.988   4.798  1.0786  0.7923  0.7647
18218THY    CP242753   1.602   5.014   4.863 -0.1571 -0.3031 -0.4308
18218THY    HP242754   1.615   4.976   4.964  1.3805  0.1843  1.2430
18218THY    HP342755   1.580   4.931   4.794  1.8864 -0.8320 -0.5769
18218THY    HP442756   1.525   5.093   4.865  1.6520  0.3481  1.4116
18218THY    CP342757   1.784   5.180   4.899 -0.2013 -0.2574 -0.4798
18218THY    HP542758   1.709   5.259   4.910  2.0765 -2.4838  2.2538
18218THY    HP642759   1.876   5.229   4.863  0.3137  0.1229 -1.1513
18218THY    HP742760   1.808   5.130   4.993  0.9710  0.1267  0.7267
18218THY    CA342761   1.620   5.250   4.653 -0.7584  0.1103  0.0584
18218THY    HA342762   1.575   5.296   4.740 -1.1384 -0.1137  0.1172
18218THY    CA442763   1.601   5.315   4.531  0.7513 -1.1236  0.2296
18218THY    HA442764   1.539   5.402   4.517 -0.2088 -1.5822 -0.5037
18218THY    CA542765   1.657   5.258   4.418  0.1406 -0.0923 -0.4314
18218THY    CM142766   1.632   5.333   4.293  0.0869  0.0827  0.3962
18218THY    HM142767   1.529   5.369   4.293  0.2831  0.6221  0.9758
18218THY    HM242768   1.621   5.276   4.200 -0.3450  1.3823 -1.7649
18218THY    HM342769   1.705   5.415   4.282 -0.3595  0.5378  0.8586
18218THY    CA642770   1.737   5.146   4.423  0.4016  0.5110 -0.2771
18218THY    HA642771   1.774   5.105   4.329 -1.0178  0.1926 -0.8922
18219THY      O42772   5.038   7.261   1.977  0.4270 -0.2026  0.3520
18219THY     HO42773   5.124   7.306   1.980  0.2966 -1.9534  0.8230
18219THY    CA142774   4.961   7.289   2.089  0.6673 -0.3516  1.0095
18219THY    CA242775   4.870   7.193   2.137  0.4025  0.2186 -0.0134
18219THY    CP142776   4.868   7.052   2.074  0.4173  0.5670 -0.3563
18219THY    HP142777   4.959   7.020   2.022 -0.2050 -1.3323  0.7951
18219THY    CP242778   4.751   7.045   1.976  0.0140  1.1121  0.5930
18219THY    HP242779   4.653   7.072   2.017 -2.0626 -1.6147 -2.1974
18219THY    HP342780   4.726   6.945   1.940 -1.9052  0.9811  1.0853
18219THY    HP442781   4.758   7.120   1.896 -1.0364  0.7063  0.2636
18219THY    CP342782   4.842   6.940   2.185 -0.2245  0.2022 -0.0703
18219THY    HP542783   4.914   6.946   2.267 -0.6632  0.9411 -3.0922
18219THY    HP642784   4.864   6.840   2.147  1.2690  0.8493 -0.0121
18219THY    HP742785   4.746   6.944   2.237  0.5168  1.5243  3.2315
18219THY    CA342786   4.791   7.221   2.249  0.8300  0.0764  0.2495
18219THY    HA342787   4.720   7.152   2.291  0.5385 -0.0492  0.4715
18219THY    CA442788   4.801   7.350   2.313  0.3787  0.7917  0.4388
18219THY    HA442789   4.731   7.383   2.389  0.3881  0.8512  0.3216
18219THY    CA542790   4.895   7.441   2.260  0.3909  0.0576 -0.0004
18219THY    CM142791   4.913   7.577   2.322 -0.6715 -0.0344 -0.5240
18219THY    HM142792   5.020   7.597   2.335 -0.5285 -1.5771 -0.1126
18219THY    HM242793   4.856   7.588   2.415  1.7567  1.4928  0.0825
18219THY    HM342794   4.875   7.646   2.246  2.0305 -1.6801 -0.7112
18219THY    CA642795   4.975   7.409   2.153  0.4821 -0.3954 -0.1231
18219THY    HA642796   5.029   7.492   2.107  0.2042 -2.4441 -1.0068
18220THY      O42797   5.973   1.750   3.363 -0.0764 -0.5844  0.4091
18220THY     HO42798   5.910   1.687   3.325 -0.1615  1.2442 -0.6740
18220THY    CA142799   5.920   1.863   3.323 -0.1363 -0.5422 -0.3260
18220THY    CA242800   5.955   1.986   3.388  0.2292  0.6774 -0.2444
18220THY    CP142801   6.076   1.990   3.486  0.2366  1.0948  0.3959
18220THY    HP142802   6.138   1.900   3.479 -0.9273  1.5384 -0.4572
18220THY    CP242803   6.041   1.998   3.629 -0.4444 -0.0221 -0.4949
18220THY    HP242804   5.988   1.909   3.666  2.3181  5.2193 -0.3269
18220THY    HP342805   5.982   2.089   3.646  2.1732  1.8073  0.9697
18220THY    HP442806   6.131   2.000   3.692  1.1512 -2.2157  0.5270
18220THY    CP342807   6.161   2.116   3.453 -0.1516  0.5680  0.3113
18220THY    HP542808   6.241   2.133   3.525  0.7874 -0.7284  1.5992
18220THY    HP642809   6.111   2.212   3.464  0.5947 -0.4041  0.8286
18220THY    HP742810   6.193   2.106   3.349  0.4654  0.9356 -2.3595
18220THY    CA342811   5.887   2.103   3.340  0.5853  0.2164 -0.8270
18220THY    HA342812   5.919   2.196   3.385 -0.2642  2.6822 -1.6295
18220THY    CA442813   5.785   2.093   3.247 -0.3185  0.0933  0.1932
18220THY    HA442814   5.745   2.185   3.206 -0.1882 -0.9924 -0.2191
18220THY    CA542815   5.741   1.966   3.194 -0.4288  0.0136  0.5106
18220THY    CM142816   5.624   1.957   3.105  0.5260 -0.0187 -0.4335
18220THY    HM142817   5.609   1.867   3.044  2.0086 -2.3558  0.8117
18220THY    HM242818   5.611   2.036   3.031  2.0880  0.6820  0.5228
18220THY    HM342819   5.529   1.959   3.159 -1.0781 -2.6442  2.1764
18220THY    CA642820   5.813   1.853   3.230 -0.0713 -0.3220 -0.3399
18220THY    HA642821   5.798   1.760   3.177  1.4013  0.7357 -1.2252
18221THY      O42822   4.256   9.482   7.585  0.4151 -0.7806 -0.0260
18221THY     HO42823   4.197   9.549   7.547 -2.5782  1.4014 -1.2017
18221THY    CA142824   4.180   9.370   7.601 -0.4480 -0.4510  0.3857
18221THY    CA242825   4.237   9.268   7.681  0.0977  0.7525  0.5707
18221THY    CP142826   4.383   9.270   7.726  0.3139 -0.2707  0.1875
18221THY    HP142827   4.422   9.372   7.738  1.0138  0.6049 -0.1750
18221THY    CP242828   4.475   9.203   7.621  0.0093 -0.2007 -0.4244
18221THY    HP242829   4.583   9.200   7.640 -0.4691  2.9138 -0.8391
18221THY    HP342830   4.455   9.255   7.526  0.2117  0.2126  0.4151
18221THY    HP442831   4.447   9.098   7.613  0.5113  0.3886 -0.6062
18221THY    CP342832   4.409   9.210   7.858  0.6487  0.7400  0.1797
18221THY    HP542833   4.339   9.244   7.935 -1.2268 -0.0410 -1.6812
18221THY    HP642834   4.507   9.242   7.895  2.0320 -2.4850  0.0840
18221THY    HP742835   4.409   9.100   7.852  0.3078 -0.3360  0.2283
18221THY    CA342836   4.155   9.151   7.708 -0.0960 -0.5724 -0.4849
18221THY    HA342837   4.195   9.074   7.773 -1.3527 -0.1020 -0.7532
18221THY    CA442838   4.025   9.138   7.657 -0.4240 -0.7219  0.4628
18221THY    HA442839   3.964   9.051   7.678  0.4210  0.8059  0.1983
18221THY    CA542840   3.968   9.239   7.575 -0.1126 -0.2331 -0.8550
18221THY    CM142841   3.824   9.216   7.514 -1.0814 -0.2397  0.5690
18221THY    HM142842   3.748   9.204   7.592 -1.4593 -0.3255  2.0916
18221THY    HM242843   3.818   9.129   7.448 -1.3212 -1.2532  1.3321
18221THY    HM342844   3.797   9.308   7.460  0.0429 -1.6860  0.0886
18221THY    CA642845   4.047   9.358   7.554  0.0584 -0.8665 -0.8986
18221THY    HA642846   4.012   9.437   7.487  0.9336  0.8845  1.0502
18222THY      O42847   5.709   0.986   7.078  0.4290 -0.2566 -0.5594
18222THY     HO42848   5.636   1.025   7.027  0.0715  0.2322 -0.5818
18222THY    CA142849   5.817   1.061   7.081  0.1091 -0.1440  0.0321
18222THY    CA242850   5.926   1.020   7.156 -0.6410 -0.8223  0.7495
18222THY    CP142851   5.924   0.881   7.215  0.0557 -0.1704  0.1592
18222THY    HP142852   5.821   0.860   7.247 -0.3293 -1.4430 -0.0335
18222THY    CP242853   6.005   0.868   7.337 -0.5252  0.0122  0.2727
18222THY    HP242854   5.974   0.939   7.415  0.2337  0.4043  0.1899
18222THY    HP342855   6.111   0.881   7.315 -1.0938 -2.3660  1.2283
18222THY    HP442856   5.990   0.774   7.392  1.9941  0.5163  0.0908
18222THY    CP342857   5.963   0.765   7.115  0.1221 -0.4496 -0.1478
18222THY    HP542858   5.883   0.762   7.040 -0.5776  0.2872 -0.0213
18222THY    HP642859   5.973   0.677   7.180 -0.5639  0.5385  0.4869
18222THY    HP742860   6.067   0.782   7.082  0.5417  0.4676 -0.8306
18222THY    CA342861   6.040   1.104   7.167 -0.4232  0.8001 -0.3889
18222THY    HA342862   6.126   1.083   7.230 -0.9549  1.2564 -1.2344
18222THY    CA442863   6.041   1.223   7.095  0.3120  0.1897  0.3099
18222THY    HA442864   6.127   1.290   7.093  0.7071  0.3145 -0.1848
18222THY    CA542865   5.935   1.262   7.019  0.2762  0.1136  0.0439
18222THY    CM142866   5.931   1.395   6.952 -0.1287 -0.0540 -0.0123
18222THY    HM142867   5.843   1.407   6.888  1.8449 -2.4343  4.4024
18222THY    HM242868   6.008   1.410   6.876 -0.4694 -0.3234  0.4038
18222THY    HM342869   5.926   1.475   7.027 -2.0727 -1.4643  1.2854
18222THY    CA642870   5.822   1.179   7.004 -0.4805  0.3434  0.5826
18222THY    HA642871   5.746   1.198   6.928 -0.5943  0.0509 -0.9243
18223THY      O42872   0.689   0.549   4.830 -0.5110 -0.1862 -0.4914
18223THY     HO42873   0.593   0.565   4.823 -0.3425 -1.1986  0.1254
18223THY    CA142874   0.720   0.529   4.697  0.1045  0.5072  0.1936
18223THY    CA242875   0.854   0.530   4.648  0.0607 -0.4130  0.4177
18223THY    CP142876   0.966   0.561   4.747 -0.2378  0.1074 -0.4853
18223THY    HP142877   0.931   0.591   4.847 -0.0496  0.2624 -0.7790
18223THY    CP242878   1.046   0.685   4.705  0.4545 -0.9322  0.8438
18223THY    HP242879   1.099   0.658   4.614  2.6519  1.1130 -2.4927
18223THY    HP342880   1.129   0.698   4.777 -0.7586  0.5450  0.7019
18223THY    HP442881   0.986   0.776   4.696 -1.4682 -0.3210 -0.3132
18223THY    CP342882   1.040   0.429   4.774 -0.1278  0.2762 -0.7434
18223THY    HP542883   0.997   0.352   4.840  2.2055  0.9640 -1.5541
18223THY    HP642884   1.130   0.449   4.834  0.2868 -0.4705 -0.3512
18223THY    HP742885   1.066   0.370   4.686  0.0785  1.4454 -2.4942
18223THY    CA342886   0.874   0.501   4.517  0.0338  0.8462  0.0718
18223THY    HA342887   0.972   0.500   4.471 -1.7795 -3.6693  1.2590
18223THY    CA442888   0.767   0.458   4.435  0.3281 -0.3113  0.5535
18223THY    HA442889   0.781   0.433   4.331 -0.8790 -0.3664  0.0033
18223THY    CA542890   0.639   0.459   4.483 -0.0339  0.1677 -0.3213
18223THY    CM142891   0.523   0.441   4.393  0.0365  0.3058  0.2224
18223THY    HM142892   0.548   0.355   4.329  4.0934  0.6083  0.9788
18223THY    HM242893   0.515   0.537   4.340 -0.8490  2.7492  1.5735
18223THY    HM342894   0.424   0.427   4.439  0.2567  0.5383 -0.6161
18223THY    CA642895   0.614   0.498   4.614 -0.6943  0.7423 -0.7234
18223THY    HA642896   0.512   0.493   4.653 -0.7009  0.5816 -2.0389
18224THY      O42897   2.821   6.645   6.476 -0.1156  0.2124  0.0915
18224THY     HO42898   2.818   6.554   6.508 -0.5859  0.6373  0.2544
18224THY    CA142899   2.698   6.675   6.429  0.0437 -0.0950 -0.6305
18224THY    CA242900   2.640   6.808   6.445 -0.2818 -0.2983 -0.7296
18224THY    CP142901   2.697   6.925   6.531  0.4500  0.6960  0.8072
18224THY    HP142902   2.782   6.884   6.587  1.7275 -2.7344 -1.6983
18224THY    CP242903   2.593   6.998   6.625  0.8282  0.3493  0.3795
18224THY    HP242904   2.545   6.931   6.697  0.1992  0.3420  0.8184
18224THY    HP342905   2.510   7.047   6.573  1.5400 -1.3889 -0.1707
18224THY    HP442906   2.637   7.078   6.686 -1.7559 -0.4831  2.6013
18224THY    CP342907   2.768   7.026   6.437  0.2652 -0.4000  0.3629
18224THY    HP542908   2.827   6.977   6.359  1.5166 -0.9012  2.5058
18224THY    HP642909   2.825   7.086   6.509 -2.3136  2.4425 -0.3620
18224THY    HP742910   2.696   7.089   6.383  1.4227 -2.1628  0.2315
18224THY    CA342911   2.517   6.836   6.386  0.3581 -0.8575  0.6797
18224THY    HA342912   2.472   6.933   6.405  1.8789 -1.2196  1.4742
18224THY    CA442913   2.453   6.739   6.310  0.3646 -0.5137 -0.5124
18224THY    HA442914   2.349   6.752   6.280 -0.9828  2.8488 -2.1903
18224THY    CA542915   2.510   6.613   6.295  0.8042 -0.8220  0.3864
18224THY    CM142916   2.448   6.516   6.202 -0.3442  0.5012 -0.3006
18224THY    HM142917   2.508   6.507   6.111 -0.7158  0.0957  0.9797
18224THY    HM242918   2.352   6.559   6.172 -0.5498 -1.0014 -1.7137
18224THY    HM342919   2.441   6.418   6.251 -1.7796  1.7290  0.3585
18224THY    CA642920   2.634   6.579   6.345 -0.2270  0.1057  0.0408
18224THY    HA642921   2.684   6.483   6.327  2.1222  1.4893  0.9202
18225THY      O42922   3.429   3.038   3.664 -0.1342 -0.6093 -0.1762
18225THY     HO42923   3.430   3.135   3.662  0.1604  0.4014 -0.1470
18225THY    CA142924   3.560   3.000   3.639 -0.2433 -0.1499 -0.0284
18225THY    CA242925   3.593   2.865   3.611  0.0626  0.1566  0.1823
18225THY    CP142926   3.480   2.778   3.572  0.4148  0.3732  0.3812
18225THY    HP142927   3.392   2.833   3.536 -0.3599  1.8149  0.1312
18225THY    CP242928   3.450   2.693   3.690 -0.6357  0.1093 -0.1267
18225THY    HP242929   3.442   2.759   3.777  0.2253  0.0585  0.0508
18225THY    HP342930   3.529   2.623   3.719  0.6216  0.6582  1.4516
18225THY    HP442931   3.360   2.634   3.670  0.1561  1.3462 -1.8166
18225THY    CP342932   3.516   2.693   3.452 -0.0212  0.1040  0.3245
18225THY    HP542933   3.571   2.745   3.374 -0.1261  0.4296  0.9374
18225THY    HP642934   3.427   2.650   3.405  1.1352 -2.7206  0.7916
18225THY    HP742935   3.576   2.608   3.486  0.9156 -0.1128  0.8842
18225THY    CA342936   3.728   2.830   3.599  0.6402 -0.4042  0.1882
18225THY    HA342937   3.758   2.730   3.569  0.0123  0.8218 -0.3956
18225THY    CA442938   3.831   2.927   3.615  0.2806  0.3817 -0.3784
18225THY    HA442939   3.937   2.904   3.615  0.8812  1.2417  2.0141
18225THY    CA542940   3.795   3.061   3.647 -0.0815 -0.0823 -0.0252
18225THY    CM142941   3.894   3.165   3.679 -0.7277  0.0513  0.0108
18225THY    HM142942   3.995   3.143   3.643 -1.2021 -0.7158 -1.0511
18225THY    HM242943   3.914   3.169   3.787  1.5501 -0.2800 -0.8362
18225THY    HM342944   3.857   3.259   3.638 -1.4177 -0.5846 -0.5207
18225THY    CA642945   3.659   3.101   3.653 -0.3668  0.1581  0.2488
18225THY    HA642946   3.636   3.200   3.689  0.7248  3.3554 -0.5590
18226THY      O42947   9.213   0.887   5.656  0.3128 -0.2214 -0.0023
18226THY     HO42948   9.183   0.826   5.586  2.5627  0.6010 -2.2426
18226THY    CA142949   9.134   0.882   5.763  0.2954  0.6383  0.2330
18226THY    CA242950   9.160   0.955   5.877  0.1837 -0.3096  1.0387
18226THY    CP142951   9.280   1.050   5.888 -0.5201  0.2906 -0.0734
18226THY    HP142952   9.338   1.048   5.795  2.0145  1.7753 -1.0210
18226THY    CP242953   9.370   0.990   5.984 -0.4147  0.1479 -0.4567
18226THY    HP242954   9.402   0.895   5.940  3.0720 -1.1455  1.1595
18226THY    HP342955   9.329   0.961   6.082 -0.9787  0.3382  0.9203
18226THY    HP442956   9.463   1.045   6.001  0.4657 -2.3909 -1.0380
18226THY    CP342957   9.237   1.191   5.930  0.1378  0.2607 -0.5334
18226THY    HP542958   9.210   1.245   5.839  1.8472  0.8171  1.3802
18226THY    HP642959   9.317   1.248   5.977 -0.1397 -0.0385  0.1151
18226THY    HP742960   9.148   1.192   5.994 -0.5197 -0.6233  0.6672
18226THY    CA342961   9.079   0.925   5.991  0.2682  0.4597 -0.0775
18226THY    HA342962   9.092   0.968   6.090  0.0417  0.7343 -0.6341
18226THY    CA442963   8.979   0.828   5.984  0.6291 -0.0718  0.6817
18226THY    HA442964   8.917   0.808   6.071 -1.4782 -1.9224 -1.4631
18226THY    CA542965   8.950   0.759   5.865 -0.5035 -0.0214 -0.0386
18226THY    CM142966   8.844   0.648   5.859  0.0395  0.5319  0.2919
18226THY    HM142967   8.886   0.548   5.873 -0.0253  0.4096  0.2466
18226THY    HM242968   8.784   0.660   5.767  2.8345 -1.3492  0.7926
18226THY    HM342969   8.779   0.664   5.945  1.1904  1.6105 -0.6583
18226THY    CA642970   9.035   0.783   5.752 -0.0033 -0.0563 -0.6825
18226THY    HA642971   9.017   0.730   5.658  0.3647 -0.0605 -0.8055
18227THY      O42972   7.910   3.310   6.954  0.6113  0.1641  0.1145
18227THY     HO42973   7.917   3.330   7.049 -0.2870  0.1449  0.5508
18227THY    CA142974   7.838   3.199   6.948 -0.2261  0.3936  0.4604
18227THY    CA242975   7.797   3.143   6.825  0.5209 -0.1344 -0.1678
18227THY    CP142976   7.837   3.226   6.699 -0.1246  0.0340  0.0160
18227THY    HP142977   7.874   3.327   6.721  0.3242  2.5694 -0.6256
18227THY    CP242978   7.732   3.234   6.589 -0.4678 -0.3887  0.0450
18227THY    HP242979   7.763   3.300   6.507 -1.9657 -0.8573  0.2142
18227THY    HP342980   7.640   3.267   6.640  1.0606  1.0827  2.3091
18227THY    HP442981   7.707   3.135   6.548 -2.8045 -1.9344  1.1653
18227THY    CP342982   7.974   3.179   6.640  0.5844  0.3923  0.3715
18227THY    HP542983   8.052   3.172   6.716  0.5154  0.5031  0.7610
18227THY    HP642984   8.019   3.248   6.568  2.0822  0.1408 -0.8061
18227THY    HP742985   7.965   3.079   6.596 -2.4792  0.8355  0.3558
18227THY    CA342986   7.715   3.026   6.824 -0.3268  0.0706  1.2064
18227THY    HA342987   7.680   2.988   6.728 -0.0702  0.7721 -0.8956
18227THY    CA442988   7.686   2.966   6.944  0.5785 -0.5246  0.1182
18227THY    HA442989   7.627   2.874   6.944 -0.8315  0.0053  0.9894
18227THY    CA542990   7.726   3.018   7.065 -0.4006 -0.0022 -0.6290
18227THY    CM142991   7.687   2.953   7.199  0.3261 -0.2968  0.5263
18227THY    HM142992   7.768   2.949   7.272 -2.0505  2.5014 -0.5807
18227THY    HM242993   7.667   2.848   7.176  0.4022 -1.0193  0.6670
18227THY    HM342994   7.598   3.006   7.235  0.4783 -0.8845  1.1917
18227THY    CA642995   7.802   3.136   7.067 -0.3055 -0.0089 -0.4191
18227THY    HA642996   7.834   3.185   7.158 -2.6229  0.9121 -0.5254
18228THY      O42997   2.105   0.630   7.234  0.5134 -0.4188 -0.5669
18228THY     HO42998   2.118   0.538   7.206  3.1879 -0.3241 -0.2988
18228THY    CA142999   2.073   0.620   7.372 -0.8536 -0.4892  0.0735
18228THY    CA243000   2.103   0.716   7.467 -0.5118 -0.2112  0.3666
18228THY    CP143001   2.165   0.855   7.434  0.0995  0.5984 -0.0500
18228THY    HP143002   2.216   0.847   7.338  0.0020  0.5445 -0.0273
18228THY    CP243003   2.279   0.889   7.527  0.5729 -0.1017  0.3498
18228THY    HP243004   2.350   0.806   7.528  0.3700 -1.6107  0.1302
18228THY    HP343005   2.242   0.916   7.627  0.1040 -0.1738 -0.0035
18228THY    HP443006   2.324   0.980   7.487 -1.6029 -0.9770  1.1199
18228THY    CP343007   2.062   0.968   7.438  0.0123  0.4103  0.0667
18228THY    HP543008   2.107   1.057   7.393 -2.2934  0.2478  1.2014
18228THY    HP643009   2.024   0.994   7.537  0.7612  0.7743 -0.1950
18228THY    HP743010   1.980   0.927   7.377  0.3849 -0.7541  0.9849
18228THY    CA343011   2.064   0.688   7.601  0.1061  1.1738 -0.2701
18228THY    HA343012   2.076   0.767   7.674 -1.3932  1.5300 -0.3422
18228THY    CA443013   2.031   0.558   7.640 -0.7786  0.9754 -0.0523
18228THY    HA443014   2.008   0.530   7.742  0.7091  1.1771 -0.6107
18228THY    CA543015   2.011   0.464   7.543 -0.3171  0.2230  0.5482
18228THY    CM143016   1.983   0.318   7.580  0.6660  0.4259 -0.6995
18228THY    HM143017   1.879   0.313   7.616  0.6070  0.5031  0.6076
18228THY    HM243018   2.049   0.288   7.662  0.0528  0.6728 -1.3966
18228THY    HM343019   1.984   0.241   7.502 -0.8249  1.3391 -1.6890
18228THY    CA643020   2.024   0.491   7.412 -0.0703  0.7003 -0.0593
18228THY    HA643021   2.011   0.410   7.341  2.2150 -0.1272  0.2124
18229THY      O43022   0.967   0.366   7.176 -0.3933  0.3328 -0.1738
18229THY     HO43023   0.895   0.309   7.143  0.4030 -0.6901 -0.6269
18229THY    CA143024   0.954   0.483   7.109 -0.8990  0.3517  0.6739
18229THY    CA243025   1.054   0.581   7.114 -0.2254 -0.6742 -0.7778
18229THY    CP143026   1.185   0.551   7.197  0.8021  0.8394 -0.2237
18229THY    HP143027   1.177   0.457   7.252 -0.5031 -1.0241 -1.2867
18229THY    CP243028   1.205   0.659   7.307 -0.0084  0.4770 -0.1853
18229THY    HP243029   1.213   0.760   7.264  0.2483 -0.9072 -0.7664
18229THY    HP343030   1.289   0.640   7.374  1.2309 -1.5498 -2.4582
18229THY    HP443031   1.112   0.661   7.366  0.4067  1.1981 -1.3210
18229THY    CP343032   1.299   0.558   7.101  0.2989 -0.3423  0.7247
18229THY    HP543033   1.300   0.468   7.038  1.7470  0.2725  0.2961
18229THY    HP643034   1.390   0.557   7.161 -1.6116  2.7681 -1.3514
18229THY    HP743035   1.297   0.645   7.034  0.1139  0.3905  1.2883
18229THY    CA343036   1.034   0.699   7.050 -0.4091  0.2417 -0.5616
18229THY    HA343037   1.100   0.785   7.057 -0.8693 -2.2150  0.0554
18229THY    CA443038   0.913   0.723   6.978  0.1716 -0.1478 -0.1765
18229THY    HA443039   0.900   0.816   6.923  0.9200 -2.2212 -1.2375
18229THY    CA543040   0.808   0.628   6.985 -0.1151  0.5123  0.1617
18229THY    CM143041   0.676   0.656   6.912 -0.2848 -0.2151  0.0926
18229THY    HM143042   0.701   0.664   6.806 -1.6104 -0.4042  3.0959
18229THY    HM243043   0.631   0.751   6.941  2.9621  1.5182  1.2737
18229THY    HM343044   0.609   0.569   6.920  0.2261 -1.3591 -0.4196
18229THY    CA643045   0.831   0.511   7.050  0.1185  0.4171  0.0649
18229THY    HA643046   0.756   0.433   7.056 -0.0962 -0.7583  0.1631
18230THY      O43047   8.224   9.258   2.574 -0.1100  0.1294 -0.1015
18230THY     HO43048   8.246   9.352   2.558  0.2494  2.8018  0.3239
18230THY    CA143049   8.215   9.202   2.451 -0.2621  0.0697 -0.4490
18230THY    CA243050   8.214   9.063   2.432  0.4883  0.3413 -0.0172
18230THY    CP143051   8.204   8.967   2.553 -0.1342 -0.1087 -0.2893
18230THY    HP143052   8.238   9.023   2.640 -0.5225  0.8155 -1.4404
18230THY    CP243053   8.285   8.843   2.554  0.4415  0.2059 -0.2383
18230THY    HP243054   8.381   8.882   2.519 -0.3398  1.0390  2.7310
18230THY    HP343055   8.239   8.770   2.486 -1.4469  1.5384 -0.3499
18230THY    HP443056   8.298   8.791   2.649  2.0035  1.3029  1.9839
18230THY    CP343057   8.058   8.943   2.589  0.5465 -0.2202 -0.0486
18230THY    HP543058   8.050   8.877   2.675  2.0392 -0.4013 -0.4876
18230THY    HP643059   8.006   8.903   2.501  1.9682 -1.0535 -0.1226
18230THY    HP743060   8.008   9.036   2.621 -1.3973  0.1584 -1.1615
18230THY    CA343061   8.212   9.014   2.296  0.3572 -0.1245 -0.1012
18230THY    HA343062   8.204   8.906   2.289  3.1657  1.1674 -0.4780
18230THY    CA443063   8.227   9.108   2.192  0.1101  0.0275  0.4793
18230THY    HA443064   8.221   9.077   2.088  1.5093 -0.1032  0.5966
18230THY    CA543065   8.226   9.250   2.214 -0.0318  0.6997  0.1740
18230THY    CM143066   8.208   9.347   2.095 -1.0044  0.4375  0.5796
18230THY    HM143067   8.237   9.303   1.999  2.9419  1.6649  0.1791
18230THY    HM243068   8.277   9.430   2.111  0.2205  0.7249 -0.4632
18230THY    HM343069   8.103   9.377   2.082 -2.2807 -1.2082 -3.7884
18230THY    CA643070   8.229   9.292   2.344 -1.0571  0.2108  0.5239
18230THY    HA643071   8.240   9.400   2.352 -0.3624  0.4928  0.4378
18231THY      O43072   6.334   9.278   5.532  0.8109 -0.4560 -0.1493
18231THY     HO43073   6.361   9.363   5.492  1.1523  1.3433  0.6178
18231THY    CA143074   6.200   9.270   5.535 -0.0014 -0.1257 -0.0006
18231THY    CA243075   6.135   9.144   5.520 -0.7943 -0.0864 -0.1673
18231THY    CP143076   6.222   9.022   5.483 -0.1219  0.4233  0.3020
18231THY    HP143077   6.326   9.049   5.463  0.4926  2.6910 -0.1921
18231THY    CP243078   6.156   8.953   5.366  0.1080 -0.4990  0.0958
18231THY    HP243079   6.057   8.919   5.399  0.8863  0.9373 -0.9145
18231THY    HP343080   6.215   8.864   5.339 -0.2259 -1.2728  0.1061
18231THY    HP443081   6.151   9.021   5.281 -0.0305  0.2010  0.9710
18231THY    CP343082   6.230   8.920   5.601 -0.5531  0.1777  0.3222
18231THY    HP543083   6.132   8.872   5.615  0.0482  1.9824 -0.4495
18231THY    HP643084   6.258   8.980   5.688  1.2118 -1.3390  1.8461
18231THY    HP743085   6.300   8.836   5.590  1.1790  0.9332  1.6035
18231THY    CA343086   6.000   9.141   5.542  0.1843  0.4508  0.6920
18231THY    HA343087   5.948   9.046   5.533  1.6875 -1.6294  0.0030
18231THY    CA443088   5.933   9.254   5.591 -0.7669 -1.1245  0.4793
18231THY    HA443089   5.831   9.246   5.627 -0.1555  0.4386 -1.0165
18231THY    CA543090   6.003   9.366   5.618  0.0299 -0.4001 -0.3196
18231THY    CM143091   5.946   9.484   5.693  0.1416  0.5097  0.0960
18231THY    HM143092   5.876   9.454   5.772 -2.2146 -1.4244  0.1400
18231THY    HM243093   5.864   9.526   5.632  0.5851 -1.4176 -1.7002
18231THY    HM343094   6.021   9.553   5.734 -0.0979  0.1938  0.5487
18231THY    CA643095   6.135   9.378   5.590 -0.0368 -0.5888 -0.2330
18231THY    HA643096   6.194   9.464   5.622  1.9096  1.3435 -2.1624
18232THY      O43097   3.019   1.911   1.739 -0.1805  0.2927  0.1967
18232THY     HO43098   2.943   1.967   1.716 -0.1822  2.2335  1.0598
18232THY    CA143099   2.965   1.808   1.803  0.8308 -0.1418 -0.5868
18232THY    CA243100   3.049   1.717   1.872  0.4173  0.0101 -1.0781
18232THY    CP143101   3.206   1.737   1.884  0.5155 -0.9633  0.0543
18232THY    HP143102   3.233   1.836   1.845  2.0871  0.1252  0.1027
18232THY    CP243103   3.271   1.620   1.798  0.0295  0.2251 -0.3727
18232THY    HP243104   3.224   1.620   1.699 -1.6775  0.9864  0.1361
18232THY    HP343105   3.243   1.527   1.849  0.4888 -0.4987 -0.9132
18232THY    HP443106   3.380   1.626   1.787 -0.0375 -0.0557  0.3809
18232THY    CP343107   3.254   1.730   2.029  0.8395 -0.9599  0.3403
18232THY    HP543108   3.363   1.739   2.033  1.0567  3.2979 -1.7213
18232THY    HP643109   3.232   1.635   2.080 -2.9284 -0.8413  1.1037
18232THY    HP743110   3.215   1.809   2.095  0.3111 -0.2983 -0.4555
18232THY    CA343111   2.991   1.605   1.939 -0.7668  0.2218 -0.2881
18232THY    HA343112   3.051   1.535   1.997  1.0061 -0.9404  0.2036
18232THY    CA443113   2.858   1.580   1.917  0.0517 -0.1782  0.0614
18232THY    HA443114   2.814   1.508   1.986  2.0318  1.5484  0.3944
18232THY    CA543115   2.783   1.658   1.834  1.2464 -0.0888 -0.1082
18232THY    CM143116   2.630   1.646   1.834 -0.5092 -0.1135  0.6540
18232THY    HM143117   2.591   1.617   1.932 -1.9207 -0.9278 -0.3458
18232THY    HM243118   2.604   1.575   1.754 -0.2994 -0.1808  0.6538
18232THY    HM343119   2.586   1.745   1.815 -1.1665 -0.7643  0.2540
18232THY    CA643120   2.832   1.773   1.788 -0.1986 -0.5233 -0.5926
18232THY    HA643121   2.763   1.833   1.730  2.1386  0.4409  3.3620
18233THY      O43122   8.245   6.849   5.389 -0.0618 -0.4483 -0.1054
18233THY     HO43123   8.316   6.903   5.428  2.1596  0.6549 -3.4794
18233THY    CA143124   8.246   6.851   5.256 -0.5923 -0.2118  0.0769
18233THY    CA243125   8.169   6.762   5.181  0.4225  0.2238  0.7001
18233THY    CP143126   8.071   6.664   5.236  0.1916  0.1761  0.3970
18233THY    HP143127   8.073   6.667   5.346 -0.5310  0.2219 -0.2496
18233THY    CP243128   8.106   6.523   5.198 -0.4330 -0.4906 -0.4991
18233THY    HP243129   8.100   6.492   5.093 -0.4825 -0.6729  0.1182
18233THY    HP343130   8.037   6.451   5.244 -0.1894  0.0364 -0.3973
18233THY    HP443131   8.210   6.507   5.229 -0.3131  0.2812  1.4748
18233THY    CP343132   7.927   6.699   5.196  0.3247 -0.5120  0.3726
18233THY    HP543133   7.926   6.735   5.092  3.0964 -0.6738  0.1845
18233THY    HP643134   7.889   6.775   5.265  0.4901 -0.0020 -0.0048
18233THY    HP743135   7.858   6.613   5.198  0.7557 -1.1116  0.0012
18233THY    CA343136   8.175   6.773   5.042  0.3878 -0.3008 -0.3354
18233THY    HA343137   8.109   6.716   4.977 -2.0817  1.4013  0.4427
18233THY    CA443138   8.270   6.863   4.982 -0.1455  0.2156 -0.1989
18233THY    HA443139   8.255   6.889   4.878 -0.8195  0.2201 -0.5638
18233THY    CA543140   8.343   6.956   5.059 -0.4728  0.3809  0.0704
18233THY    CM143141   8.416   7.074   5.001 -0.2819  0.1914  0.5725
18233THY    HM143142   8.441   7.147   5.080  0.5341 -0.4096  0.9652
18233THY    HM243143   8.353   7.133   4.934  2.3722 -1.4174  1.7738
18233THY    HM343144   8.508   7.049   4.947  0.4474  0.7167  2.0070
18233THY    CA643145   8.326   6.946   5.196 -0.6188 -0.2808  0.6059
18233THY    HA643146   8.392   7.006   5.258 -0.4937  1.1348 -0.9011
18234THY      O43147   4.264   3.873   6.899 -0.2724 -0.0385 -0.4289
18234THY     HO43148   4.285   3.827   6.982  0.2939  0.2666  0.3716
18234THY    CA143149   4.338   3.795   6.813  0.8430 -0.0853 -0.0588
18234THY    CA243150   4.382   3.842   6.686  0.2892 -0.7146  0.2101
18234THY    CP143151   4.355   3.989   6.644  0.6429  0.8305  0.3197
18234THY    HP143152   4.323   4.049   6.731 -0.4946  1.4764 -1.1613
18234THY    CP243153   4.225   4.005   6.559  0.6747  1.2124 -0.0534
18234THY    HP243154   4.145   3.958   6.617 -0.0818  0.7502  0.6367
18234THY    HP343155   4.239   3.958   6.461 -0.9275  0.9693 -0.0825
18234THY    HP443156   4.181   4.104   6.544 -0.1995 -2.3134 -0.8323
18234THY    CP343157   4.477   4.063   6.575 -0.1724 -0.3582  0.0186
18234THY    HP543158   4.560   4.088   6.641 -0.2575 -0.5251  0.7515
18234THY    HP643159   4.433   4.159   6.545 -2.1354  0.8101 -0.4610
18234THY    HP743160   4.519   4.002   6.493  0.5461  1.0036 -1.3810
18234THY    CA343161   4.458   3.762   6.599  0.4070 -0.3345  0.5194
18234THY    HA343162   4.487   3.798   6.501  1.2467 -0.4199 -0.3452
18234THY    CA443163   4.486   3.633   6.649  0.5046 -0.1733  0.0124
18234THY    HA443164   4.533   3.562   6.582 -2.9218 -0.3842 -2.2693
18234THY    CA543165   4.443   3.589   6.774 -0.4243  0.2914  0.2746
18234THY    CM143166   4.476   3.448   6.810  1.0175  0.5454 -0.1297
18234THY    HM143167   4.455   3.445   6.917 -0.1864  0.3092 -1.5591
18234THY    HM243168   4.583   3.427   6.798  0.9115 -2.4821  0.5287
18234THY    HM343169   4.409   3.381   6.755  0.4626  1.0580 -0.0024
18234THY    CA643170   4.371   3.667   6.855 -0.5258  0.2389  0.4011
18234THY    HA643171   4.338   3.633   6.953  0.6266  0.9277  1.1777
18235THY      O43172   6.629   3.085   6.784 -0.6481 -0.5268  0.4913
18235THY     HO43173   6.557   3.019   6.790  0.2307  0.3381 -0.4221
18235THY    CA143174   6.729   3.048   6.864 -0.3799 -0.7197  0.4554
18235THY    CA243175   6.835   3.133   6.893 -0.4893 -0.1482  0.9891
18235THY    CP143176   6.836   3.275   6.837 -0.0804  0.5998  0.0764
18235THY    HP143177   6.735   3.295   6.798  0.6141 -1.2647  0.1208
18235THY    CP243178   6.936   3.283   6.727 -0.1954  0.2800 -0.5268
18235THY    HP243179   7.036   3.288   6.771 -0.9426  2.0861 -0.2945
18235THY    HP343180   6.920   3.377   6.673  0.6794 -1.7036 -1.4739
18235THY    HP443181   6.924   3.187   6.675  0.3912  2.2518 -1.7255
18235THY    CP343182   6.859   3.375   6.948  0.2871  0.2248  0.0669
18235THY    HP543183   6.787   3.365   7.031 -0.5672 -0.7527 -3.0560
18235THY    HP643184   6.859   3.478   6.912 -1.5318  0.8365  0.3143
18235THY    HP743185   6.955   3.364   7.001  0.7470 -0.7308 -0.5902
18235THY    CA343186   6.940   3.091   6.970 -0.3688 -0.0010  0.0003
18235THY    HA343187   7.009   3.167   7.005 -0.9332 -2.5637  1.8201
18235THY    CA443188   6.945   2.961   7.020 -0.1053  0.0717 -0.1160
18235THY    HA443189   7.029   2.945   7.087  2.0948 -1.6807  2.9675
18235THY    CA543190   6.848   2.873   6.982  0.2981  0.0069 -0.0214
18235THY    CM143191   6.850   2.730   7.035  1.0100  0.3444 -0.9845
18235THY    HM143192   6.951   2.706   7.069  1.5383  0.3078  1.0144
18235THY    HM243193   6.815   2.658   6.960 -0.3667  0.6200 -0.6407
18235THY    HM343194   6.786   2.717   7.123  2.2495  1.1854 -1.5312
18235THY    CA643195   6.741   2.917   6.904 -0.0661 -0.0286 -0.3271
18235THY    HA643196   6.664   2.849   6.869 -0.9732  0.7553  0.2879
18236THY      O43197   8.834   3.085   7.471  0.2960 -0.1915 -0.0216
18236THY     HO43198   8.861   3.028   7.397 -1.0064 -0.7641  0.0578
18236THY    CA143199   8.763   3.009   7.561  0.5988  0.7403  0.5099
18236THY    CA243200   8.679   3.060   7.659  0.0465  0.7824 -0.4410
18236THY    CP143201   8.665   3.210   7.673 -0.0217 -0.0296  0.4966
18236THY    HP143202   8.731   3.256   7.598 -0.3882  0.1000  1.2438
18236THY    CP243203   8.731   3.259   7.811  0.6941  0.5799 -0.7394
18236THY    HP243204   8.818   3.194   7.827  0.7849  1.6407 -0.3652
18236THY    HP343205   8.669   3.251   7.900  1.1622  1.2097  1.6815
18236THY    HP443206   8.752   3.366   7.798 -2.0753 -1.1422 -0.3168
18236THY    CP343207   8.522   3.271   7.641  0.0840  0.0700  0.2893
18236THY    HP543208   8.494   3.252   7.537  0.4751  0.2147 -1.2453
18236THY    HP643209   8.538   3.379   7.648 -1.1123 -0.4751  0.5115
18236THY    HP743210   8.451   3.247   7.721  2.4804  1.6554 -2.2892
18236THY    CA343211   8.610   2.977   7.752 -0.3785  0.0498 -0.4651
18236THY    HA343212   8.543   3.024   7.824  1.4482 -0.6902  3.6771
18236THY    CA443213   8.624   2.833   7.732  0.5147  0.1830 -0.3229
18236THY    HA443214   8.577   2.763   7.801 -2.6866 -1.4432  0.0300
18236THY    CA543215   8.699   2.783   7.628  0.3131  0.8487  0.1392
18236THY    CM143216   8.721   2.635   7.628 -0.0116  0.2491 -0.3034
18236THY    HM143217   8.625   2.583   7.631 -0.6987  0.7828  0.9259
18236THY    HM243218   8.756   2.600   7.726 -0.0779  0.2332 -0.4138
18236THY    HM343219   8.779   2.598   7.543 -0.7220  0.2366 -1.4185
18236THY    CA643220   8.768   2.871   7.548  0.3137 -0.0391 -0.3280
18236THY    HA643221   8.837   2.835   7.472 -0.0028 -0.3786 -0.2285
18237THY      O43222   1.613   3.902   5.025  0.5079  0.2111 -0.1406
18237THY     HO43223   1.538   3.945   4.978  0.6971 -2.4541 -2.4196
18237THY    CA143224   1.627   3.936   5.153  0.2083  0.1882  0.4650
18237THY    CA243225   1.707   3.860   5.241  0.0279  0.1796 -0.8612
18237THY    CP143226   1.776   3.741   5.190 -0.2147  0.3760  0.4358
18237THY    HP143227   1.741   3.710   5.091  2.7592 -0.2146 -1.4452
18237THY    CP243228   1.736   3.623   5.281  0.4285  0.1575  0.0510
18237THY    HP243229   1.797   3.613   5.371 -0.7261  1.1982  1.9146
18237THY    HP343230   1.750   3.526   5.231  0.4744 -0.3466  0.3132
18237THY    HP443231   1.629   3.632   5.305  0.7252  1.2500  0.9124
18237THY    CP343232   1.929   3.756   5.171  0.2173 -1.0809 -0.2019
18237THY    HP543233   1.953   3.838   5.103  2.8768  0.6968  0.6231
18237THY    HP643234   1.969   3.664   5.126  0.2723 -0.9636 -0.2357
18237THY    HP743235   1.973   3.764   5.271 -3.8684  0.8388  1.6635
18237THY    CA343236   1.722   3.906   5.374 -0.6036  0.1612 -1.2501
18237THY    HA343237   1.782   3.854   5.449  0.9341 -0.2865 -0.1787
18237THY    CA443238   1.654   4.020   5.418  0.6441  0.3999 -0.0521
18237THY    HA443239   1.667   4.058   5.519 -0.2296  0.0627  1.2167
18237THY    CA543240   1.585   4.098   5.320 -0.4394  0.3070 -0.4645
18237THY    CM143241   1.523   4.236   5.347 -0.1091  0.0359 -0.6380
18237THY    HM143242   1.535   4.292   5.254  4.0598  0.8367  0.1032
18237THY    HM243243   1.576   4.296   5.422  1.3546 -0.1595 -1.6401
18237THY    HM343244   1.419   4.233   5.382 -1.0377 -2.3812  0.4587
18237THY    CA643245   1.565   4.053   5.188  0.7047  0.3625  0.1584
18237THY    HA643246   1.514   4.114   5.114  2.5838  1.5202  3.3551
18238THY      O43247   7.184   3.944   5.490 -0.1695 -0.1244  0.0640
18238THY     HO43248   7.131   3.946   5.571  1.7441  1.1863 -0.4480
18238THY    CA143249   7.287   4.025   5.511 -0.3605  0.2090 -0.4836
18238THY    CA243250   7.312   4.151   5.447  0.0158 -0.3061  0.2281
18238THY    CP143251   7.203   4.203   5.344  0.4074  0.2523  0.1103
18238THY    HP143252   7.131   4.121   5.331  2.3634 -2.3444 -1.3657
18238THY    CP243253   7.260   4.213   5.199 -0.5147 -0.1672  0.2113
18238THY    HP243254   7.336   4.291   5.202  1.4446 -0.6089 -1.6001
18238THY    HP343255   7.176   4.232   5.131 -0.8781  0.3404  0.4615
18238THY    HP443256   7.313   4.122   5.170  1.0821  2.1553  0.3188
18238THY    CP343257   7.136   4.333   5.377 -0.4775  0.4584  0.0617
18238THY    HP543258   7.216   4.401   5.408 -0.5230 -1.2370  0.9465
18238THY    HP643259   7.070   4.314   5.462  0.7563  1.2548 -0.8817
18238THY    HP743260   7.074   4.376   5.297 -1.2964  2.1720  2.2955
18238THY    CA343261   7.429   4.228   5.478 -0.2150  0.2497  0.3926
18238THY    HA343262   7.432   4.330   5.439 -1.9161 -3.9828 -0.9403
18238THY    CA443263   7.534   4.165   5.549 -0.4250 -0.4190 -0.7843
18238THY    HA443264   7.629   4.215   5.567  1.1289 -2.6963 -2.6896
18238THY    CA543265   7.518   4.036   5.605  0.4852 -0.5576 -0.2354
18238THY    CM143266   7.631   3.968   5.686  0.1688  0.1480  0.0492
18238THY    HM143267   7.683   4.032   5.758 -0.5489 -0.1474  0.9905
18238THY    HM243268   7.707   3.918   5.624  1.6524  1.2851  0.8080
18238THY    HM343269   7.583   3.886   5.739  1.0121 -0.4149 -0.8263
18238THY    CA643270   7.393   3.968   5.580  0.8747 -0.6541 -0.6912
18238THY    HA643271   7.380   3.870   5.625  0.8204  0.5694 -0.1344
18239THY      O43272   2.711   2.493   5.119  0.6921  0.1674 -0.2190
18239THY     HO43273   2.743   2.407   5.152  2.6889 -0.6346  0.1516
18239THY    CA143274   2.582   2.493   5.145  0.0419 -0.1719  0.4015
18239THY    CA243275   2.503   2.610   5.132  0.6138  0.2111  0.2036
18239THY    CP143276   2.559   2.745   5.077 -0.2871 -0.2389  0.2633
18239THY    HP143277   2.669   2.746   5.078 -0.1358  1.6598 -2.9698
18239THY    CP243278   2.525   2.860   5.174 -0.6755  0.0616  0.4110
18239THY    HP243279   2.551   2.958   5.131 -0.3322  1.6922  1.0848
18239THY    HP343280   2.586   2.836   5.263  1.6173 -1.3635  0.6385
18239THY    HP443281   2.420   2.865   5.204 -0.6378  0.0100  2.2476
18239THY    CP343282   2.506   2.763   4.938 -0.0822  0.4831  0.9021
18239THY    HP543283   2.526   2.672   4.878  1.1026  1.4420  0.5112
18239THY    HP643284   2.559   2.837   4.878  2.1641 -0.1844 -1.1319
18239THY    HP743285   2.399   2.783   4.923  0.2115 -1.7496  1.1216
18239THY    CA343286   2.362   2.600   5.155  0.5035  0.7085  0.0960
18239THY    HA343287   2.291   2.683   5.159 -2.4232  3.3710 -2.2356
18239THY    CA443288   2.311   2.477   5.201  0.0815 -0.3683 -0.8725
18239THY    HA443289   2.207   2.473   5.233 -0.4705 -1.2083  3.2190
18239THY    CA543290   2.392   2.364   5.214 -0.5564  0.5902  0.0498
18239THY    CM143291   2.330   2.236   5.260 -0.0978 -0.5400 -0.4031
18239THY    HM143292   2.236   2.216   5.208  0.3949 -1.7287  0.2474
18239THY    HM243293   2.318   2.233   5.369 -0.4715 -0.5050  1.4555
18239THY    HM343294   2.394   2.154   5.225  2.5766  1.0566  0.8730
18239THY    CA643295   2.528   2.370   5.185  0.2000  0.1359  0.2632
18239THY    HA643296   2.588   2.282   5.206  0.4339 -0.0704  0.3721
18240THY      O43297   4.795   2.957   3.083  0.1957 -0.4531  0.5838
18240THY     HO43298   4.706   2.941   3.120  0.0972 -1.3974 -1.3094
18240THY    CA143299   4.829   2.836   3.017  0.4666 -0.5159  0.5830
18240THY    CA243300   4.956   2.812   2.956 -0.6426  0.3516 -0.0227
18240THY    CP143301   5.049   2.929   2.935 -0.3476  0.3091 -0.5629
18240THY    HP143302   5.029   3.010   3.007  1.4709  2.4148 -1.8605
18240THY    CP243303   5.027   2.984   2.794  0.1213  0.0900  0.0572
18240THY    HP243304   5.081   3.078   2.779  2.0341  2.4432 -0.5594
18240THY    HP343305   4.919   2.992   2.780  0.0690  0.9070  0.7906
18240THY    HP443306   5.074   2.912   2.725 -0.0045  0.6004 -0.5179
18240THY    CP343307   5.193   2.897   2.961 -0.5765  0.3628  0.1275
18240THY    HP543308   5.199   2.827   3.046  1.2256 -1.3620 -1.9729
18240THY    HP643309   5.245   2.992   2.979  1.6254 -0.6649 -0.8130
18240THY    HP743310   5.234   2.853   2.870 -2.0887  0.0027 -0.5881
18240THY    CA343311   4.989   2.688   2.900  0.1527 -0.0656  0.1505
18240THY    HA343312   5.088   2.686   2.855  0.1442 -0.0738 -0.5703
18240THY    CA443313   4.904   2.584   2.916  0.8764  0.2427 -0.3745
18240THY    HA443314   4.926   2.491   2.864  0.0006 -1.7943  0.4913
18240THY    CA543315   4.771   2.615   2.959  0.4869  0.3290  0.3613
18240THY    CM143316   4.668   2.509   2.949 -0.6293  0.6180  0.4116
18240THY    HM143317   4.708   2.407   2.956  1.1010  1.8847  1.1511
18240THY    HM243318   4.603   2.509   2.860  1.0327 -0.6500  0.4815
18240THY    HM343319   4.590   2.512   3.026 -1.8733 -0.6278  2.8729
18240THY    CA643320   4.733   2.734   3.014  0.2111  0.9889 -0.4424
18240THY    HA643321   4.639   2.744   3.066  0.4775  1.2469  0.8262
18241THY      O43322   1.891   4.915   6.361  0.5340 -0.0297 -0.0027
18241THY     HO43323   1.849   4.828   6.361  0.7751  1.1552 -0.1323
18241THY    CA143324   1.834   4.985   6.468 -0.2597  0.0110 -0.7357
18241THY    CA243325   1.799   5.123   6.465  0.7884 -0.6278  0.0999
18241THY    CP143326   1.839   5.206   6.345  0.7594 -0.1956  0.5011
18241THY    HP143327   1.940   5.175   6.312  1.9081  2.5354  1.0364
18241THY    CP243328   1.854   5.357   6.379 -0.7445 -0.6061  0.1459
18241THY    HP243329   1.912   5.349   6.471 -1.4620 -0.2283 -0.8454
18241THY    HP343330   1.755   5.401   6.397 -0.9608 -1.2678 -0.0592
18241THY    HP443331   1.914   5.415   6.307  0.2104 -0.7521 -0.9855
18241THY    CP343332   1.732   5.171   6.243  0.0655  0.5750 -0.8843
18241THY    HP543333   1.708   5.065   6.236 -1.5887  3.0415 -0.7630
18241THY    HP643334   1.761   5.210   6.145 -2.4324  0.1177  0.0545
18241THY    HP743335   1.633   5.207   6.276 -1.5435 -2.5627 -2.1284
18241THY    CA343336   1.727   5.176   6.577 -0.9424 -0.2964  0.1677
18241THY    HA343337   1.693   5.279   6.573 -1.2292  0.2043  0.0942
18241THY    CA443338   1.698   5.097   6.688 -0.3051  0.4231 -0.1453
18241THY    HA443339   1.634   5.130   6.769 -1.3995  0.5776 -2.4438
18241THY    CA543340   1.731   4.958   6.676  0.0205  0.1520  0.0568
18241THY    CM143341   1.700   4.868   6.793  0.6599 -0.4972 -0.7600
18241THY    HM143342   1.758   4.774   6.794  1.3274  0.1530 -0.3571
18241THY    HM243343   1.593   4.846   6.801  0.1407  2.2879  2.1362
18241THY    HM343344   1.730   4.921   6.884 -2.9706  0.2724  0.2617
18241THY    CA643345   1.799   4.906   6.569  0.4074 -0.0410 -0.2553
18241THY    HA643346   1.826   4.801   6.567  1.3613  1.8886 -0.1009
18242THY      O43347   4.548   2.258   2.613  0.0550  0.0547  0.0471
18242THY     HO43348   4.482   2.233   2.680  0.3101  0.4645  0.4553
18242THY    CA143349   4.682   2.230   2.650  0.2958  0.2226 -0.4080
18242THY    CA243350   4.790   2.236   2.565 -0.0081 -0.2543  0.4526
18242THY    CP143351   4.766   2.280   2.424 -0.0343  0.4544 -0.9048
18242THY    HP143352   4.671   2.336   2.425  0.4801 -1.6473  0.0768
18242THY    CP243353   4.738   2.173   2.326 -0.3043  0.1492  0.7062
18242THY    HP243354   4.713   2.214   2.227 -0.7979  0.8543  2.1651
18242THY    HP343355   4.647   2.123   2.362  0.1872  0.5317  0.0775
18242THY    HP443356   4.830   2.114   2.322  1.0174  1.5211  2.5862
18242THY    CP343357   4.866   2.388   2.368  0.0574 -0.1502 -0.5711
18242THY    HP543358   4.964   2.347   2.344  0.3726 -0.7040  0.4733
18242THY    HP643359   4.889   2.466   2.441 -0.6493 -1.3329  0.8085
18242THY    HP743360   4.838   2.427   2.269 -0.1578  0.1332  0.0103
18242THY    CA343361   4.918   2.209   2.610 -0.2845 -0.5551 -0.5008
18242THY    HA343362   5.002   2.211   2.541  0.7775  0.6268  2.6619
18242THY    CA443363   4.946   2.184   2.744  0.5003 -0.1801 -0.6044
18242THY    HA443364   5.045   2.171   2.787  0.5547 -0.4422 -1.1025
18242THY    CA543365   4.839   2.188   2.837  0.5638 -0.1603 -0.0467
18242THY    CM143366   4.859   2.163   2.986 -0.0190  0.4475  0.5130
18242THY    HM143367   4.895   2.255   3.032 -1.0763 -0.7896  1.5818
18242THY    HM243368   4.924   2.076   3.005  2.8631  0.0279  2.4319
18242THY    HM343369   4.767   2.133   3.037  0.2766  0.6426 -0.0929
18242THY    CA643370   4.711   2.222   2.789  0.6192 -0.5856 -0.0208
18242THY    HA643371   4.632   2.224   2.864  0.5606 -0.6468  1.6909
18243THY      O43372   1.374   6.517   5.757  0.3534  0.6982 -0.4774
18243THY     HO43373   1.359   6.424   5.732 -0.7696 -1.4717  0.2103
18243THY    CA143374   1.442   6.514   5.873  0.4784 -0.6811 -0.1012
18243THY    CA243375   1.363   6.492   5.995  0.0663  0.0555 -0.4854
18243THY    CP143376   1.210   6.461   5.999  0.0373 -0.6786  0.2310
18243THY    HP143377   1.173   6.438   5.898 -0.9840  0.0902 -1.7899
18243THY    CP243378   1.135   6.565   6.062  0.0196  0.3530  0.1105
18243THY    HP243379   1.028   6.541   6.058  0.0519  2.8632 -0.7303
18243THY    HP343380   1.148   6.658   6.005  1.1988 -1.4169 -1.0836
18243THY    HP443381   1.173   6.574   6.164 -0.8790  0.6872  0.1981
18243THY    CP343382   1.194   6.327   6.076  0.3072  0.1550 -0.0867
18243THY    HP543383   1.222   6.329   6.182 -3.6459  1.3255  1.1391
18243THY    HP643384   1.251   6.252   6.019  0.7223  2.6419 -1.7917
18243THY    HP743385   1.092   6.288   6.070  0.6978  1.4600 -1.4138
18243THY    CA343386   1.437   6.479   6.116  0.0100  0.0907 -0.5561
18243THY    HA343387   1.386   6.466   6.212 -0.5217  0.2678  2.2573
18243THY    CA443388   1.582   6.490   6.112 -0.2634 -0.1616 -0.0553
18243THY    HA443389   1.643   6.474   6.201  2.8239 -2.4954 -2.5227
18243THY    CA543390   1.652   6.516   5.996 -0.1604  0.1594  0.3488
18243THY    CM143391   1.798   6.521   5.990 -0.3931 -0.3677 -0.4792
18243THY    HM143392   1.831   6.597   5.918 -2.1530 -0.7090  0.0046
18243THY    HM243393   1.848   6.425   5.974  1.1963  0.0158  0.2466
18243THY    HM343394   1.836   6.555   6.087 -1.1577 -0.0259 -0.5830
18243THY    CA643395   1.581   6.524   5.872  0.1861 -0.1348 -1.0012
18243THY    HA643396   1.635   6.545   5.781  2.4265  1.5344  1.0525
18244THY      O43397   8.988   6.402   3.059  0.4238 -0.0050 -0.1669
18244THY     HO43398   8.966   6.353   3.141 -1.9929 -0.8426 -0.6477
18244THY    CA143399   8.962   6.535   3.085 -0.0942 -0.7300  0.3431
18244THY    CA243400   8.989   6.645   2.996  0.3264 -0.2258 -0.3373
18244THY    CP143401   9.051   6.620   2.863  0.2219  0.3902 -0.0074
18244THY    HP143402   9.089   6.518   2.854  0.3992  0.6007  0.0402
18244THY    CP243403   9.158   6.723   2.843  0.0143 -0.4612  0.5150
18244THY    HP243404   9.121   6.816   2.798  2.1877 -0.7064  1.3171
18244THY    HP343405   9.236   6.689   2.775 -0.0816 -1.3944  2.0345
18244THY    HP443406   9.213   6.751   2.934 -0.1808  0.1886 -1.0759
18244THY    CP343407   8.937   6.618   2.766  0.0306  0.2243 -0.1311
18244THY    HP543408   8.876   6.709   2.773 -0.8284  0.9110 -0.7423
18244THY    HP643409   8.865   6.535   2.779  1.6780  0.1171 -1.6359
18244THY    HP743410   8.973   6.608   2.663 -0.8990  0.0503 -2.7512
18244THY    CA343411   8.935   6.766   3.030  0.2419  0.4372  0.1842
18244THY    HA343412   8.938   6.849   2.960 -0.8316  0.8485  0.5806
18244THY    CA443413   8.877   6.793   3.156  0.3411 -0.0296 -0.0445
18244THY    HA443414   8.843   6.895   3.175  0.7288 -1.7735  0.4430
18244THY    CA543415   8.868   6.690   3.253  0.2907  0.3229  0.3372
18244THY    CM143416   8.791   6.708   3.382 -0.7377  0.3190  0.2621
18244THY    HM143417   8.683   6.710   3.366 -0.6461 -0.4131 -0.3872
18244THY    HM243418   8.813   6.808   3.423 -0.2184 -0.5847  0.5374
18244THY    HM343419   8.812   6.617   3.439  2.2339 -0.1619  0.5446
18244THY    CA643420   8.910   6.562   3.211  0.6790  0.2604  0.5136
18244THY    HA643421   8.891   6.471   3.267  0.0280 -2.0653 -0.8844
18245THY      O43422   6.351   0.783   7.051 -0.0467  0.1403  0.7434
18245THY     HO43423   6.321   0.720   6.983 -1.9403  2.3220 -0.8823
18245THY    CA143424   6.470   0.834   7.020 -0.2260 -1.0496  0.2167
18245THY    CA243425   6.521   0.947   7.079 -0.1978  0.3278 -0.0294
18245THY    CP143426   6.436   1.036   7.170  0.2217 -0.2483 -0.0681
18245THY    HP143427   6.335   0.996   7.180  0.7225  1.7972 -0.9542
18245THY    CP243428   6.422   1.190   7.135 -0.4686  0.0021  0.5029
18245THY    HP243429   6.379   1.196   7.035  0.2035 -0.3771 -0.5701
18245THY    HP343430   6.516   1.245   7.147 -0.8166  0.5361  0.9965
18245THY    HP443431   6.353   1.237   7.206 -0.4070  0.5668 -0.2379
18245THY    CP343432   6.471   1.018   7.317 -0.2488 -0.3175  0.3379
18245THY    HP543433   6.578   1.020   7.339 -0.4607  1.0253 -1.0061
18245THY    HP643434   6.446   0.915   7.347  2.6457  0.4174 -0.2250
18245THY    HP743435   6.407   1.085   7.376 -1.2705 -1.2520  0.2225
18245THY    CA343436   6.643   0.999   7.034  0.6631  0.2507  0.7711
18245THY    HA343437   6.690   1.091   7.068  0.7983  1.2738  0.3428
18245THY    CA443438   6.706   0.937   6.929  0.0797  0.1518  0.1534
18245THY    HA443439   6.795   0.973   6.879 -1.3588 -2.2302  0.7032
18245THY    CA543440   6.660   0.807   6.877 -0.3361 -0.7509  0.2231
18245THY    CM143441   6.737   0.715   6.780  0.8303  0.4709 -0.7144
18245THY    HM143442   6.799   0.636   6.824  1.1930  1.6574  0.2101
18245THY    HM243443   6.789   0.775   6.704  1.3458 -0.7393 -2.6033
18245THY    HM343444   6.668   0.657   6.718  1.8459 -0.8262 -0.5901
18245THY    CA643445   6.536   0.767   6.918 -0.4018  0.8671  0.1975
18245THY    HA643446   6.494   0.676   6.879 -1.6032  0.3838  0.9381
18246THY      O43447   8.369   7.867   4.323  0.1244 -0.6366  0.9331
18246THY     HO43448   8.455   7.841   4.285 -0.1068 -0.4625 -0.1254
18246THY    CA143449   8.273   7.844   4.238  0.1596 -0.3364 -0.1822
18246THY    CA243450   8.140   7.875   4.266  0.5834 -0.3267 -0.9203
18246THY    CP143451   8.093   7.923   4.404 -0.8990 -0.3973 -0.5537
18246THY    HP143452   8.165   7.914   4.486 -0.9632 -0.1562  0.9164
18246THY    CP243453   7.971   7.831   4.438 -0.0060  0.2454  0.0547
18246THY    HP243454   7.950   7.850   4.543  0.0863 -0.1830  2.9699
18246THY    HP343455   7.998   7.726   4.420  0.3467 -0.6267  0.2802
18246THY    HP443456   7.881   7.863   4.385  1.9886 -2.9864  0.8535
18246THY    CP343457   8.063   8.073   4.407  0.4026  0.0630  0.3933
18246THY    HP543458   8.145   8.127   4.359  0.3007 -1.2907 -0.6024
18246THY    HP643459   8.034   8.110   4.506  0.8653  0.4317 -0.2206
18246THY    HP743460   7.976   8.084   4.341  0.1905  0.4735  1.3393
18246THY    CA343461   8.043   7.875   4.160 -0.1525 -0.1533  1.2597
18246THY    HA343462   7.938   7.891   4.180 -0.5888 -0.4850 -0.8869
18246THY    CA443463   8.086   7.849   4.030  0.0716  0.0456 -0.4359
18246THY    HA443464   8.018   7.858   3.945 -1.0122  0.9694  0.4050
18246THY    CA543465   8.215   7.811   4.008 -0.5882 -0.0424  0.4135
18246THY    CM143466   8.246   7.765   3.873  0.9184 -0.5659 -0.1190
18246THY    HM143467   8.235   7.657   3.865  2.8257 -1.2853 -0.2975
18246THY    HM243468   8.351   7.786   3.850  1.0118 -1.9945 -1.9490
18246THY    HM343469   8.191   7.809   3.789  2.6198 -1.6980 -0.0651
18246THY    CA643470   8.309   7.807   4.110  0.5970  0.6099  0.6062
18246THY    HA643471   8.407   7.764   4.093  1.6035  0.2273  2.8717
18247THY      O43472   5.715   6.428   4.997  0.6765  0.4883  0.0468
18247THY     HO43473   5.720   6.524   5.013  0.0480 -0.8853  0.3327
18247THY    CA143474   5.774   6.377   5.106  0.5307 -0.1825  0.0286
18247THY    CA243475   5.763   6.244   5.145  0.6175 -0.2363  0.7835
18247THY    CP143476   5.655   6.159   5.065 -0.6415 -0.2337 -0.1343
18247THY    HP143477   5.653   6.197   4.962  0.3203  0.0857  0.8556
18247THY    CP243478   5.514   6.177   5.114  0.4786 -0.0619 -0.3891
18247THY    HP243479   5.448   6.115   5.051  0.2338  0.1692 -0.3677
18247THY    HP343480   5.493   6.282   5.094  2.5899 -1.4162 -0.1906
18247THY    HP443481   5.516   6.138   5.217  0.7595 -1.1237 -3.5262
18247THY    CP343482   5.694   6.012   5.064  0.0983 -0.2175  0.2408
18247THY    HP543483   5.620   5.975   4.993 -2.3010  2.3665 -0.2691
18247THY    HP643484   5.676   5.962   5.160 -2.5679  0.1961  1.7973
18247THY    HP743485   5.795   6.005   5.023  0.3145  0.5575 -2.0811
18247THY    CA343486   5.828   6.199   5.261  0.6676  0.2332 -0.2930
18247THY    HA343487   5.826   6.094   5.286  1.6260 -0.3507 -0.4595
18247THY    CA443488   5.915   6.287   5.329  0.7385  0.1108  0.0150
18247THY    HA443489   5.977   6.259   5.414 -2.3561  2.6766  0.3327
18247THY    CA543490   5.921   6.418   5.290  0.4098  0.4195 -0.1634
18247THY    CM143491   6.009   6.503   5.369 -0.3126  0.0722  0.1840
18247THY    HM143492   5.956   6.534   5.460  0.8452  0.8152  0.0371
18247THY    HM243493   6.043   6.592   5.315  1.1738  2.5081  1.1879
18247THY    HM343494   6.098   6.449   5.403  0.3499 -2.5226 -0.5401
18247THY    CA643495   5.849   6.467   5.183 -1.1276 -0.0782  0.3455
18247THY    HA643496   5.864   6.571   5.155  0.2671  0.7844  0.4083
18248THY      O43497   8.478   3.088   6.018  0.2744 -0.2116 -0.3119
18248THY     HO43498   8.535   3.132   6.084  0.6561 -1.3717  0.9853
18248THY    CA143499   8.357   3.148   6.028 -0.0083 -0.5453 -0.2415
18248THY    CA243500   8.272   3.186   5.920  0.2183  0.9125 -0.0649
18248THY    CP143501   8.323   3.155   5.780 -0.2005 -0.1686 -0.2204
18248THY    HP143502   8.373   3.059   5.760  1.9274 -0.4945  0.8979
18248THY    CP243503   8.435   3.255   5.743 -1.1455  0.4866 -1.1587
18248THY    HP243504   8.447   3.255   5.634  2.4061  0.7654 -1.0626
18248THY    HP343505   8.526   3.215   5.789  0.1118  0.3292  1.3568
18248THY    HP443506   8.409   3.358   5.770  0.4191 -0.1626 -0.5639
18248THY    CP343507   8.209   3.165   5.673  0.0535  0.7464 -0.0255
18248THY    HP543508   8.163   3.265   5.670 -0.5505  0.6791 -0.3028
18248THY    HP643509   8.130   3.091   5.690 -0.2058 -1.9671 -0.4891
18248THY    HP743510   8.245   3.144   5.572 -0.3886  0.1544  1.8190
18248THY    CA343511   8.159   3.269   5.952  0.1157  0.0340 -0.2912
18248THY    HA343512   8.098   3.309   5.871 -0.7084  0.5288 -0.5263
18248THY    CA443513   8.120   3.291   6.080  0.5750  0.1109  0.3195
18248THY    HA443514   8.027   3.344   6.097  0.2431  1.4498 -0.6403
18248THY    CA543515   8.193   3.238   6.193 -0.1626  0.2160  0.5529
18248THY    CM143516   8.142   3.240   6.331  0.2423 -0.4101 -0.2320
18248THY    HM143517   8.034   3.249   6.348  0.4035  0.9176 -0.4506
18248THY    HM243518   8.182   3.332   6.375  1.6828 -3.9578  0.9939
18248THY    HM343519   8.173   3.150   6.387 -1.1229  2.0735  0.7263
18248THY    CA643520   8.316   3.178   6.164 -0.1900 -1.4246  0.2921
18248THY    HA643521   8.384   3.167   6.247  0.6346 -2.2383 -1.0436
18249THY      O43522   2.231   5.087   6.195  0.6815  0.1512 -0.0613
18249THY     HO43523   2.182   5.013   6.235 -0.4895  0.1639  0.6892
18249THY    CA143524   2.238   5.173   6.297  0.1450 -0.0108 -0.4153
18249THY    CA243525   2.265   5.310   6.286  0.1740  0.6982  0.4833
18249THY    CP143526   2.313   5.366   6.147  0.7892 -0.9642 -0.3303
18249THY    HP143527   2.258   5.312   6.069 -0.6242 -0.3668  0.2139
18249THY    CP243528   2.463   5.322   6.142 -0.1837 -0.9278  0.3857
18249THY    HP243529   2.522   5.366   6.061  0.0086  1.1856  4.5030
18249THY    HP343530   2.464   5.213   6.129 -1.6426 -0.9234  0.3609
18249THY    HP443531   2.524   5.348   6.229  1.5637 -1.8856 -0.3283
18249THY    CP343532   2.309   5.513   6.123  0.3799  0.1671 -0.1871
18249THY    HP543533   2.397   5.564   6.164  1.3370 -0.7428 -1.0479
18249THY    HP643534   2.218   5.565   6.152 -0.3080 -0.3311 -1.0836
18249THY    HP743535   2.319   5.532   6.015 -1.9358  0.1223  1.0265
18249THY    CA343536   2.233   5.393   6.393  0.0371  0.4790 -0.2750
18249THY    HA343537   2.242   5.500   6.381  0.6621 -1.0473 -0.4753
18249THY    CA443538   2.187   5.336   6.513  0.0034  0.7060  0.1359
18249THY    HA443539   2.165   5.401   6.597 -2.2008  0.5584 -0.3224
18249THY    CA543540   2.158   5.206   6.525  0.0671 -0.1555  0.3544
18249THY    CM143541   2.118   5.142   6.661 -0.6366  0.0016 -0.5877
18249THY    HM143542   2.214   5.117   6.707  0.5453 -0.9041  1.9578
18249THY    HM243543   2.066   5.047   6.643  2.0656 -1.1963 -1.9585
18249THY    HM343544   2.065   5.213   6.726  2.4686  1.6140  0.4338
18249THY    CA643545   2.186   5.127   6.415 -0.6741 -0.2711  0.3025
18249THY    HA643546   2.153   5.024   6.423 -1.4629 -0.5348  0.5344
18250THY      O43547   8.736   4.691   5.928  0.1066  0.1461 -0.1458
18250THY     HO43548   8.759   4.754   5.857  0.6736 -0.4164 -0.9511
18250THY    CA143549   8.824   4.592   5.901  0.3119 -0.3486  0.2281
18250THY    CA243550   8.863   4.499   6.007  0.3170 -0.0527 -0.1792
18250THY    CP143551   8.801   4.504   6.149  0.0281  0.4319 -0.1234
18250THY    HP143552   8.742   4.595   6.163  0.1489  1.7848 -0.2439
18250THY    CP243553   8.920   4.527   6.237  0.0620 -0.6621 -0.5871
18250THY    HP243554   8.882   4.528   6.340  1.9449  0.1162 -2.0553
18250THY    HP343555   8.977   4.618   6.217  0.1405  1.6076 -0.0900
18250THY    HP443556   8.985   4.440   6.251  0.6698 -0.7174 -0.1469
18250THY    CP343557   8.721   4.375   6.186  0.2905  0.6392  0.1240
18250THY    HP543558   8.686   4.380   6.290 -2.2145 -0.1652  0.9302
18250THY    HP643559   8.789   4.289   6.187  0.2359 -0.3203  0.0641
18250THY    HP743560   8.639   4.339   6.123  0.1824  1.8216 -1.8431
18250THY    CA343561   8.957   4.403   5.975 -0.0908  0.2853  0.0073
18250THY    HA343562   8.995   4.337   6.053 -1.9393  2.3495  1.2170
18250THY    CA443563   9.010   4.401   5.845 -0.3853  0.1892  0.4978
18250THY    HA443564   9.093   4.334   5.826  0.1876  0.8017  1.0241
18250THY    CA543565   8.963   4.479   5.742  0.1459 -0.0479 -0.3031
18250THY    CM143566   9.014   4.465   5.600 -0.0720 -0.6796 -0.3681
18250THY    HM143567   8.966   4.379   5.550 -0.6565  2.0414 -1.7525
18250THY    HM243568   9.123   4.453   5.600  0.2327  0.3913  1.8646
18250THY    HM343569   8.991   4.556   5.543  1.5557 -1.3345 -0.3367
18250THY    CA643570   8.875   4.585   5.774  0.0009  0.2127 -0.2865
18250THY    HA643571   8.844   4.651   5.694 -1.3590  0.4916 -0.5544
18251THY      O43572   1.687   4.072   4.654  0.7052 -0.7400 -0.4322
18251THY     HO43573   1.730   4.028   4.729 -1.2851  0.7095 -0.0458
18251THY    CA143574   1.675   3.976   4.562 -0.2524  0.1999  0.0246
18251THY    CA243575   1.656   4.005   4.424 -0.1046 -0.0463 -0.2614
18251THY    CP143576   1.625   4.141   4.374  0.6023 -0.1770  0.2125
18251THY    HP143577   1.607   4.202   4.464 -2.4426  2.7536 -4.4217
18251THY    CP243578   1.482   4.145   4.306 -0.6741 -0.3870  0.1550
18251THY    HP243579   1.450   4.248   4.288 -2.3285  0.2638 -0.1980
18251THY    HP343580   1.414   4.105   4.383  0.5700  0.7403  0.1523
18251THY    HP443581   1.469   4.087   4.214 -1.9792  0.0282 -0.2547
18251THY    CP343582   1.734   4.214   4.293 -0.3591  0.4828  0.0777
18251THY    HP543583   1.724   4.195   4.186 -0.8414  0.8976 -2.3435
18251THY    HP643584   1.836   4.203   4.332 -1.3850  3.6881  0.7546
18251THY    HP743585   1.705   4.319   4.285  1.6320 -3.0813  0.5212
18251THY    CA343586   1.646   3.891   4.334 -0.1020  0.2509  0.1155
18251THY    HA343587   1.616   3.903   4.231 -0.4394  0.3256 -0.0668
18251THY    CA443588   1.681   3.765   4.382  0.3986 -0.0715 -0.1757
18251THY    HA443589   1.691   3.679   4.316  0.8239 -1.1281  0.6801
18251THY    CA543590   1.717   3.738   4.516 -0.6224  0.5558  0.3386
18251THY    CM143591   1.759   3.606   4.574  0.4577  0.5835  0.8332
18251THY    HM143592   1.851   3.620   4.632  2.4941 -2.0794 -0.5654
18251THY    HM243593   1.784   3.552   4.482 -1.8476 -0.0691  0.7658
18251THY    HM343594   1.683   3.557   4.635  2.5333  0.8585 -2.3111
18251THY    CA643595   1.705   3.845   4.604 -0.2686 -0.0826  0.5565
18251THY    HA643596   1.720   3.820   4.708 -1.6527 -0.2721 -1.2426
18252THY      O43597   7.406   7.448   6.273  0.1781 -0.0380 -0.2696
18252THY     HO43598   7.353   7.387   6.327  1.4043  0.6893 -0.7185
18252THY    CA143599   7.429   7.372   6.161  0.2031 -0.1993  0.0796
18252THY    CA243600   7.556   7.346   6.105  0.2000  0.0536  0.0776
18252THY    CP143601   7.674   7.393   6.192  0.8830  0.2728  0.3947
18252THY    HP143602   7.643   7.419   6.293  2.1075  0.2233  2.2006
18252THY    CP243603   7.720   7.523   6.137  0.2620 -0.3346 -0.2935
18252THY    HP243604   7.729   7.518   6.028 -1.4750 -0.4926 -0.2861
18252THY    HP343605   7.805   7.568   6.190  0.1511 -0.0255 -0.4417
18252THY    HP443606   7.640   7.596   6.151  1.1089 -0.9447  0.7784
18252THY    CP343607   7.779   7.281   6.203  0.3850  0.1296  0.5387
18252THY    HP543608   7.735   7.187   6.238 -2.0939 -0.0173  1.5548
18252THY    HP643609   7.853   7.300   6.282  1.1450 -0.0644 -1.3749
18252THY    HP743610   7.832   7.267   6.108 -0.2841 -0.3621  1.2502
18252THY    CA343611   7.568   7.283   5.985  0.0433  0.1730 -0.3012
18252THY    HA343612   7.665   7.276   5.937 -0.0275  0.1781 -1.4020
18252THY    CA443613   7.454   7.241   5.917  0.0641 -0.5571 -0.5965
18252THY    HA443614   7.453   7.199   5.817  1.8279 -0.2986 -1.3296
18252THY    CA543615   7.327   7.267   5.973  0.5566 -0.6462  0.7644
18252THY    CM143616   7.203   7.220   5.908  0.4518 -0.1129 -0.2492
18252THY    HM143617   7.210   7.213   5.799 -1.4928 -0.2780 -0.2974
18252THY    HM243618   7.118   7.287   5.930 -0.7933 -0.3295 -1.7208
18252THY    HM343619   7.174   7.118   5.937  0.1024  0.5326  0.0213
18252THY    CA643620   7.314   7.332   6.097  0.1849 -0.3606  0.3511
18252THY    HA643621   7.216   7.343   6.142  0.3837  0.8777 -2.1661
18253THY      O43622   5.396   7.454   5.226 -0.1820  0.0294 -1.0893
18253THY     HO43623   5.489   7.483   5.234 -0.1671 -1.9671 -0.4575
18253THY    CA143624   5.373   7.446   5.093  0.5085  1.0404  0.5045
18253THY    CA243625   5.237   7.433   5.049  0.7055  0.2162 -0.0290
18253THY    CP143626   5.120   7.435   5.156 -0.2575  0.4026 -0.1118
18253THY    HP143627   5.154   7.447   5.260 -0.2635  0.1982  2.0525
18253THY    CP243628   5.035   7.308   5.141  0.2928 -0.7067  0.1600
18253THY    HP243629   5.105   7.223   5.146 -0.9954 -2.0834 -1.0299
18253THY    HP343630   4.975   7.307   5.049 -2.6382  1.0777 -0.2427
18253THY    HP443631   4.952   7.296   5.212 -1.1111 -2.2430  0.4128
18253THY    CP343632   5.032   7.554   5.140  0.8826 -0.0395 -0.3272
18253THY    HP543633   4.980   7.561   5.044 -0.0795  0.5259  0.6025
18253THY    HP643634   5.092   7.645   5.134  0.1838  0.9398  0.2231
18253THY    HP743635   4.948   7.570   5.209  1.7150  1.1276 -0.8483
18253THY    CA343636   5.212   7.441   4.913  0.3592  0.2413 -0.4728
18253THY    HA343637   5.109   7.453   4.880  0.2297  0.8368  0.1021
18253THY    CA443638   5.316   7.441   4.822 -0.0695  0.1671  0.2409
18253THY    HA443639   5.303   7.443   4.715  0.6185  0.0902  1.6739
18253THY    CA543640   5.450   7.438   4.862  0.1809 -0.4931  0.9863
18253THY    CM143641   5.558   7.450   4.759 -0.3312 -0.3717 -0.3529
18253THY    HM143642   5.627   7.530   4.789 -0.2827 -0.9127 -0.1907
18253THY    HM243643   5.522   7.475   4.658 -0.1829 -0.2868  0.2277
18253THY    HM343644   5.617   7.359   4.755 -1.4860  1.4924 -1.2353
18253THY    CA643645   5.473   7.448   5.004 -1.1557  0.4406  0.3570
18253THY    HA643646   5.574   7.474   5.032 -0.4576 -1.8404  0.3450
18254THY      O43647   3.481   5.583   4.621  0.1459 -0.4421 -0.0849
18254THY     HO43648   3.445   5.493   4.629 -2.3858  3.4027  1.0160
18254THY    CA143649   3.588   5.588   4.538 -0.0232 -0.4752  0.8297
18254THY    CA243650   3.619   5.703   4.473  0.1740  0.1582  0.4861
18254THY    CP143651   3.550   5.833   4.514 -0.0591  0.2101 -0.6504
18254THY    HP143652   3.443   5.811   4.515  0.0142 -1.1753 -1.2129
18254THY    CP243653   3.548   5.932   4.396 -0.4264 -0.6095 -0.0491
18254THY    HP243654   3.487   6.022   4.408  0.7454  1.9603  0.4915
18254THY    HP343655   3.515   5.870   4.312  0.7744  0.0716 -1.6885
18254THY    HP443656   3.652   5.962   4.377 -0.6566  0.7172  1.7225
18254THY    CP343657   3.612   5.905   4.639  0.9112  0.3935  0.0511
18254THY    HP543658   3.633   5.836   4.722  2.7306  0.5057  0.6869
18254THY    HP643659   3.543   5.981   4.677  1.3674  1.1198  0.1175
18254THY    HP743660   3.715   5.936   4.614  0.8094  0.8221  0.7551
18254THY    CA343661   3.722   5.699   4.384 -0.5596 -0.0200 -0.2519
18254THY    HA343662   3.750   5.785   4.325 -0.7520  0.7027  0.3104
18254THY    CA443663   3.784   5.579   4.351 -0.6160  0.5511 -0.3122
18254THY    HA443664   3.864   5.587   4.279 -1.8130 -0.7417  0.4801
18254THY    CA543665   3.752   5.459   4.415 -0.6237  0.6745  0.1615
18254THY    CM143666   3.820   5.327   4.379  0.3471 -0.0438 -1.2543
18254THY    HM143667   3.770   5.247   4.435 -1.0118 -2.2744 -2.0817
18254THY    HM243668   3.927   5.332   4.401  0.6207 -1.1910 -1.6115
18254THY    HM343669   3.816   5.294   4.274  1.0757 -1.0191  1.5048
18254THY    CA643670   3.654   5.464   4.510  0.1014 -0.3578 -0.2083
18254THY    HA643671   3.614   5.380   4.565  1.2187 -0.3910 -0.7762
18255THY      O43672   1.374   2.493   7.431 -0.0910  0.4821 -0.1839
18255THY     HO43673   1.296   2.448   7.395  1.2117 -3.5038  0.3125
18255THY    CA143674   1.391   2.594   7.340 -0.1371 -0.9848  0.4652
18255THY    CA243675   1.517   2.640   7.304 -0.5308 -0.1938 -1.1027
18255THY    CP143676   1.649   2.581   7.362 -0.0908  0.1418  1.3744
18255THY    HP143677   1.624   2.525   7.453  0.3584 -0.0668  0.8153
18255THY    CP243678   1.757   2.686   7.394  0.0907  0.1118 -0.0584
18255THY    HP243679   1.801   2.725   7.302 -2.0730 -0.6591  0.7011
18255THY    HP343680   1.829   2.644   7.466 -1.9104  0.9520 -2.2691
18255THY    HP443681   1.711   2.772   7.445 -0.3839 -0.1661 -0.1486
18255THY    CP343682   1.721   2.476   7.256 -0.0187 -0.3982 -0.1603
18255THY    HP543683   1.791   2.403   7.299  0.3213  0.0416  0.4193
18255THY    HP643684   1.780   2.511   7.171  0.8980 -0.6256 -2.1101
18255THY    HP743685   1.638   2.409   7.231 -1.5676  2.9641  0.3094
18255THY    CA343686   1.526   2.746   7.218  0.7009 -0.1976 -0.4813
18255THY    HA343687   1.620   2.791   7.189  0.2541 -2.2734 -0.7479
18255THY    CA443688   1.408   2.800   7.162 -0.2805 -0.3410 -0.1448
18255THY    HA443689   1.405   2.882   7.091 -1.6341  0.8008  0.8632
18255THY    CA543690   1.282   2.752   7.196  0.2975  0.4102 -0.1925
18255THY    CM143691   1.150   2.800   7.136  0.1759  0.4655  0.1007
18255THY    HM143692   1.145   2.794   7.027  1.7729  0.4272 -1.1216
18255THY    HM243693   1.150   2.906   7.163  0.0166 -1.9436  0.7547
18255THY    HM343694   1.065   2.745   7.178  0.8321 -1.0676 -2.2269
18255THY    CA643695   1.278   2.648   7.288  0.5039  0.8717  1.1206
18255THY    HA643696   1.183   2.604   7.319 -0.0720 -1.6123  0.4598
18256THY      O43697   6.802   4.517   5.201 -0.0668  0.5724  0.5033
18256THY     HO43698   6.829   4.518   5.107  1.1817  0.8780 -0.7951
18256THY    CA143699   6.787   4.391   5.229  0.0169  0.2724  0.2279
18256THY    CA243700   6.711   4.344   5.333  0.3228 -0.1409 -0.2792
18256THY    CP143701   6.633   4.437   5.424 -0.4073 -0.4184 -0.9022
18256THY    HP143702   6.632   4.543   5.397 -0.3590 -2.5825 -1.4030
18256THY    CP243703   6.671   4.442   5.574  0.0277 -0.3071 -0.2616
18256THY    HP243704   6.616   4.511   5.638  2.0438  0.9215  0.2987
18256THY    HP343705   6.774   4.477   5.588  0.2849 -0.4638 -0.9412
18256THY    HP443706   6.655   4.343   5.617  1.0072 -1.2969 -0.8816
18256THY    CP343707   6.481   4.410   5.402 -0.1808  0.1489  0.8878
18256THY    HP543708   6.449   4.412   5.297 -0.6474  0.1701 -1.5357
18256THY    HP643709   6.421   4.478   5.463 -1.8514  1.1459 -1.3352
18256THY    HP743710   6.459   4.305   5.426 -2.5832 -0.8753  1.0796
18256THY    CA343711   6.697   4.206   5.352 -0.2041  0.1141  0.0534
18256THY    HA343712   6.627   4.164   5.424  1.0966  0.0280 -2.3955
18256THY    CA443713   6.769   4.119   5.274  0.0414  0.2748  0.5398
18256THY    HA443714   6.753   4.013   5.289 -0.9420  1.5429  0.8364
18256THY    CA543715   6.852   4.164   5.175 -0.9885  0.2168 -0.5514
18256THY    CM143716   6.937   4.059   5.102  0.3751  0.0324 -0.0012
18256THY    HM143717   6.992   4.107   5.020  0.8456  0.8139  0.8241
18256THY    HM243718   6.875   3.986   5.048 -0.9633  1.7639 -0.2004
18256THY    HM343719   7.012   4.004   5.158  0.6739 -0.2836  0.0819
18256THY    CA643720   6.858   4.300   5.147  0.0797  0.4634  0.6536
18256THY    HA643721   6.926   4.342   5.073  1.9353  1.1861 -0.9463
18257THY      O43722   7.050   1.078   4.136 -0.0662  0.2044 -0.0412
18257THY     HO43723   7.101   1.159   4.155 -1.0697 -0.7199  0.8554
18257THY    CA143724   7.125   0.969   4.166 -0.6333  0.5871 -0.0005
18257THY    CA243725   7.076   0.841   4.186  0.1366 -0.7332  0.1883
18257THY    CP143726   6.930   0.806   4.158  0.2100  0.2017 -0.3587
18257THY    HP143727   6.872   0.898   4.148  2.4115  1.5332  1.2534
18257THY    CP243728   6.862   0.724   4.271 -0.4202  0.4714 -0.4189
18257THY    HP243729   6.905   0.755   4.367 -1.4211  0.7034  0.2955
18257THY    HP343730   6.873   0.616   4.255  2.2230 -0.9340 -0.0017
18257THY    HP443731   6.753   0.741   4.270 -0.5618  1.5190 -1.1598
18257THY    CP343732   6.921   0.736   4.022 -0.2564 -0.4190 -0.0124
18257THY    HP543733   6.974   0.640   4.030  2.0548  0.2951  1.2372
18257THY    HP643734   6.963   0.792   3.937 -1.4446 -0.2489  1.1756
18257THY    HP743735   6.814   0.722   4.005 -0.5569 -1.5494  2.9417
18257THY    CA343736   7.165   0.737   4.232  0.3008 -0.5402 -0.8180
18257THY    HA343737   7.136   0.633   4.242  0.1689 -0.8945 -0.8188
18257THY    CA443738   7.297   0.772   4.258 -0.6454  0.5201  0.9312
18257THY    HA443739   7.364   0.697   4.300 -2.1361  1.7359  0.2172
18257THY    CA543740   7.348   0.898   4.230 -0.6010  0.1591 -0.1723
18257THY    CM143741   7.497   0.923   4.240  0.0213  0.6906  0.2850
18257THY    HM143742   7.529   0.920   4.345  2.3112  0.0715  1.1022
18257THY    HM243743   7.512   1.022   4.196  1.3123  1.4208  0.4291
18257THY    HM343744   7.549   0.844   4.185 -2.7023 -0.5902 -0.7626
18257THY    CA643745   7.258   0.997   4.185 -0.5379  0.6198  0.0365
18257THY    HA643746   7.295   1.096   4.163 -0.0385 -1.0363 -0.4841
18258THY      O43747   8.585   0.802   7.079  0.1995  0.0272  0.6509
18258THY     HO43748   8.595   0.842   7.167 -0.1956  0.1443  0.4985
18258THY    CA143749   8.529   0.902   7.010 -0.2999 -0.5318 -0.3627
18258THY    CA243750   8.444   0.884   6.902 -0.2199 -0.1117  0.7211
18258THY    CP143751   8.385   0.739   6.858  0.4927 -0.4224  0.5735
18258THY    HP143752   8.410   0.654   6.922  1.3357 -1.6355 -0.1166
18258THY    CP243753   8.447   0.696   6.719 -0.1653  0.5061  0.0961
18258THY    HP243754   8.423   0.771   6.643 -0.1809 -0.1737 -0.5846
18258THY    HP343755   8.402   0.599   6.692  0.4542  0.6232 -0.2318
18258THY    HP443756   8.555   0.685   6.733 -0.2991  0.8476 -0.8712
18258THY    CP343757   8.233   0.737   6.858  0.5458  0.2479 -0.0839
18258THY    HP543758   8.192   0.815   6.793  0.2775 -0.5615 -0.8869
18258THY    HP643759   8.194   0.734   6.960 -2.0162 -0.6792 -2.4119
18258THY    HP743760   8.193   0.644   6.816  0.1595  1.4554 -0.4811
18258THY    CA343761   8.402   0.995   6.834 -0.0831  0.3720  0.1602
18258THY    HA343762   8.325   0.988   6.757  1.9755 -1.6340 -2.0636
18258THY    CA443763   8.457   1.125   6.863 -0.1069 -0.4623  0.3741
18258THY    HA443764   8.437   1.214   6.805  0.4568  0.1215  0.8974
18258THY    CA543765   8.541   1.137   6.971 -0.7808 -0.3461  0.4919
18258THY    CM143766   8.610   1.266   7.000  0.5363  0.1238  0.6103
18258THY    HM143767   8.669   1.255   7.092 -0.1755  0.7153  1.5403
18258THY    HM243768   8.554   1.360   6.993  0.3845 -1.0236  0.4413
18258THY    HM343769   8.696   1.272   6.932  1.7786  1.4676 -1.0605
18258THY    CA643770   8.571   1.026   7.049  0.0796  0.1890  0.9365
18258THY    HA643771   8.643   1.034   7.130  0.0631  0.2177  0.7894
18259THY      O43772   7.358   0.950   4.604  0.4284  0.0189  0.2433
18259THY     HO43773   7.350   0.903   4.519  2.7458  0.1329 -0.5109
18259THY    CA143774   7.243   1.022   4.630 -0.1968 -0.2163 -0.0366
18259THY    CA243775   7.245   1.105   4.741  0.1704 -0.5111 -0.2214
18259THY    CP143776   7.369   1.115   4.833  0.6674  0.0511  0.0872
18259THY    HP143777   7.432   1.026   4.820 -0.3967 -2.4719 -0.3826
18259THY    CP243778   7.330   1.117   4.982  0.5423 -0.4741 -0.6642
18259THY    HP243779   7.420   1.100   5.041 -1.2044  2.4504 -0.3413
18259THY    HP343780   7.264   1.038   5.018  0.2457  2.9579  0.9844
18259THY    HP443781   7.274   1.210   4.998  0.3880 -4.9365  0.2305
18259THY    CP343782   7.458   1.243   4.806  0.2376  0.1266 -0.3262
18259THY    HP543783   7.540   1.248   4.878 -1.2137  1.7686  1.8565
18259THY    HP643784   7.407   1.339   4.825  1.0127 -1.2675  0.3876
18259THY    HP743785   7.488   1.238   4.700  2.3471  0.4813  2.3795
18259THY    CA343786   7.127   1.186   4.760  0.0574  0.0133  0.5217
18259THY    HA343787   7.115   1.254   4.844 -3.0136  1.2517 -1.3510
18259THY    CA443788   7.017   1.170   4.672  0.0978 -0.0994 -0.2968
18259THY    HA443789   6.928   1.232   4.675  0.2998 -1.7932  0.1431
18259THY    CA543790   7.020   1.080   4.566  0.3312 -0.9168  0.4207
18259THY    CM143791   6.901   1.074   4.477  0.3219 -0.7915  0.2319
18259THY    HM143792   6.815   1.125   4.521  0.5439 -0.0668 -0.0063
18259THY    HM243793   6.897   0.967   4.454 -0.3405 -0.2880  0.1471
18259THY    HM343794   6.925   1.126   4.384 -0.0510 -0.3521  1.2028
18259THY    CA643795   7.134   1.009   4.544 -0.6298 -0.5337  0.3358
18259THY    HA643796   7.140   0.941   4.459  0.1432  0.6648 -1.1659
18260THY      O43797   7.542   2.183   4.780  0.0360  0.2493  0.0399
18260THY     HO43798   7.639   2.177   4.780  0.3060 -1.9490  2.4232
18260THY    CA143799   7.506   2.307   4.743 -0.5752  0.1635  0.3504
18260THY    CA243800   7.379   2.352   4.755  0.3240  0.2792 -0.4933
18260THY    CP143801   7.277   2.272   4.840 -0.4637  0.0485  0.3974
18260THY    HP143802   7.282   2.170   4.799  1.2113  0.0453  0.4451
18260THY    CP243803   7.132   2.317   4.823  0.6305 -0.0828  0.4366
18260THY    HP243804   7.111   2.306   4.716 -1.0225  0.1256  1.3108
18260THY    HP343805   7.109   2.417   4.862 -1.3723 -0.0810  0.0012
18260THY    HP443806   7.070   2.243   4.874 -1.7448 -1.4230  1.4041
18260THY    CP343807   7.312   2.276   4.990 -0.4025  0.2024  0.5999
18260THY    HP543808   7.408   2.227   5.011 -0.8790 -2.0990 -1.5366
18260THY    HP643809   7.237   2.233   5.058  1.2477  1.8302  0.1534
18260THY    HP743810   7.310   2.379   5.027 -2.6737  0.3408  0.5640
18260THY    CA343811   7.350   2.477   4.700  0.2917  0.3581  0.7829
18260THY    HA343812   7.254   2.526   4.710 -1.5823 -1.4571 -2.1811
18260THY    CA443813   7.454   2.552   4.637 -0.1750 -0.5188 -0.1829
18260THY    HA443814   7.441   2.652   4.596 -1.0480 -0.4711 -0.2703
18260THY    CA543815   7.581   2.502   4.623  0.7152 -0.3646  0.4925
18260THY    CM143816   7.686   2.568   4.554 -0.8522  0.8169  0.1822
18260THY    HM143817   7.737   2.494   4.492 -1.5393 -1.9591  1.8822
18260THY    HM243818   7.774   2.602   4.611 -0.9947  0.8981  0.4253
18260THY    HM343819   7.645   2.644   4.487  0.7325 -0.5710 -0.1311
18260THY    CA643820   7.602   2.377   4.675  0.2415  0.1062 -0.5212
18260THY    HA643821   7.699   2.332   4.653 -0.8083 -2.1731 -1.8450
18261THY      O43822   2.260   5.705   6.989 -0.2830 -0.0840  0.2485
18261THY     HO43823   2.189   5.769   7.003 -0.4431 -1.0786  0.3097
18261THY    CA143824   2.254   5.615   7.098  0.0431 -0.0958  0.2292
18261THY    CA243825   2.338   5.507   7.108  0.1033 -0.0950  0.5069
18261THY    CP143826   2.441   5.482   6.992 -0.2525 -0.9965 -0.2282
18261THY    HP143827   2.444   5.573   6.931  0.3271  0.8734  1.0595
18261THY    CP243828   2.409   5.364   6.891 -0.2719 -0.4597 -0.3125
18261THY    HP243829   2.335   5.390   6.815  0.3468 -1.0894 -0.3623
18261THY    HP343830   2.364   5.279   6.944 -3.1119 -0.5325  1.0329
18261THY    HP443831   2.498   5.341   6.831 -0.5738 -1.3160  0.6724
18261THY    CP343832   2.581   5.452   7.052 -0.6037 -0.2220  0.2255
18261THY    HP543833   2.580   5.357   7.107  0.5306  1.5011  1.1528
18261THY    HP643834   2.602   5.527   7.130  0.7723 -2.2207  2.0431
18261THY    HP743835   2.670   5.444   6.988  0.0893  0.6629  0.6795
18261THY    CA343836   2.333   5.425   7.220  0.2607 -0.1455  0.4792
18261THY    HA343837   2.404   5.344   7.231  1.5103  0.9035  1.6747
18261THY    CA443838   2.230   5.442   7.314  0.9793  0.2721 -0.4855
18261THY    HA443839   2.218   5.373   7.397  3.6179  1.5228  0.4151
18261THY    CA543840   2.140   5.543   7.296  0.6271  0.6586 -0.1492
18261THY    CM143841   2.029   5.560   7.395 -0.6830 -0.9725  0.3596
18261THY    HM143842   2.078   5.614   7.477  0.2990 -0.3157 -1.4816
18261THY    HM243843   1.990   5.464   7.428  1.6146 -0.0052 -0.3052
18261THY    HM343844   1.950   5.623   7.352  1.1489 -0.0791  3.5276
18261THY    CA643845   2.156   5.636   7.195 -0.5256 -0.8530 -0.1936
18261THY    HA643846   2.085   5.716   7.176 -1.6800 -1.7799 -1.3930
18262THY      O43847   7.217   0.515   6.156  0.0140 -0.2109 -1.0549
18262THY     HO43848   7.132   0.471   6.140  0.5422  0.1049 -2.2268
18262THY    CA143849   7.303   0.423   6.113 -0.6119  0.8607  0.0483
18262THY    CA243850   7.404   0.374   6.196  0.6217  0.2018 -0.5698
18262THY    CP143851   7.422   0.438   6.335 -0.4755 -0.3745 -0.0690
18262THY    HP143852   7.393   0.543   6.337 -3.1589 -1.0364 -0.7246
18262THY    CP243853   7.567   0.442   6.374 -0.7813  0.0013 -0.6939
18262THY    HP243854   7.611   0.344   6.395  2.1450  1.6795  0.8398
18262THY    HP343855   7.573   0.512   6.458 -0.7824 -0.8086  0.2998
18262THY    HP443856   7.630   0.488   6.297 -1.4762  0.0615  0.4170
18262THY    CP343857   7.337   0.356   6.442  0.3562 -0.0756  0.1518
18262THY    HP543858   7.367   0.251   6.452 -0.7127 -0.2129 -0.1782
18262THY    HP643859   7.233   0.346   6.409  0.8833 -1.8353  0.1323
18262THY    HP743860   7.338   0.401   6.542 -1.0556 -0.3795  0.8994
18262THY    CA343861   7.469   0.258   6.162 -0.2358  0.0072 -0.1573
18262THY    HA343862   7.557   0.228   6.218  0.5071 -1.0270  0.0477
18262THY    CA443863   7.437   0.192   6.044  0.9100  0.6060  0.8972
18262THY    HA443864   7.480   0.095   6.021  0.1120 -0.4571  0.7851
18262THY    CA543865   7.331   0.245   5.962  0.3438 -0.9766  0.1480
18262THY    CM143866   7.279   0.158   5.854  0.2313  0.2688  0.0766
18262THY    HM143867   7.366   0.119   5.800  0.6705  1.6614 -0.9593
18262THY    HM243868   7.209   0.216   5.793 -0.2300  0.5468 -0.1790
18262THY    HM343869   7.226   0.073   5.899 -0.4670 -0.8227 -0.0745
18262THY    CA643870   7.264   0.359   5.996  0.4841 -0.4464  0.3431
18262THY    HA643871   7.170   0.382   5.946 -1.6486  1.9092 -2.4047
18263THY      O43872   6.623   6.860   2.551 -0.3483  0.7234  0.1642
18263THY     HO43873   6.662   6.787   2.501 -2.7930 -2.1648  0.6314
18263THY    CA143874   6.567   6.803   2.661  0.2577  0.0869  0.2433
18263THY    CA243875   6.477   6.877   2.740  0.8218  0.2851 -0.1581
18263THY    CP143876   6.426   7.017   2.688 -0.2800 -0.2069 -0.2214
18263THY    HP143877   6.461   7.031   2.585  0.6665 -0.1029 -1.6618
18263THY    CP243878   6.485   7.137   2.769 -0.0362 -0.6588  0.8419
18263THY    HP243879   6.466   7.132   2.877  1.7154 -0.3742 -0.5824
18263THY    HP343880   6.448   7.236   2.743  0.9824 -1.0493  1.1245
18263THY    HP443881   6.594   7.143   2.767  0.1965 -0.7331 -1.8909
18263THY    CP343882   6.267   7.024   2.690  0.1332 -0.3972 -0.5090
18263THY    HP543883   6.234   7.117   2.643 -0.1595  1.5262  0.3876
18263THY    HP643884   6.231   7.020   2.793  0.1870 -0.1948  2.2601
18263THY    HP743885   6.216   6.941   2.640 -0.5424  1.4424 -1.2569
18263THY    CA343886   6.428   6.829   2.864  0.7616 -0.4104 -0.1971
18263THY    HA343887   6.341   6.874   2.912  1.0190 -0.6400  0.5530
18263THY    CA443888   6.465   6.694   2.898  0.0824 -0.1264 -0.3330
18263THY    HA443889   6.414   6.641   2.978  0.1830  0.0021 -0.2355
18263THY    CA543890   6.560   6.629   2.824 -0.3002 -0.0896  0.3839
18263THY    CM143891   6.600   6.484   2.863 -0.1264 -0.0524 -0.1556
18263THY    HM143892   6.692   6.473   2.921  0.2962 -0.8024 -0.5955
18263THY    HM243893   6.610   6.427   2.771 -3.0573 -1.8156  1.8672
18263THY    HM343894   6.524   6.442   2.931  0.7584  0.7236 -0.5368
18263THY    CA643895   6.615   6.684   2.707 -0.0203 -0.4374  0.7131
18263THY    HA643896   6.691   6.627   2.655  0.8320  2.5884 -1.1561
18264THY      O43897   5.053   4.589   2.309 -0.5290 -0.3541 -0.5684
18264THY     HO43898   4.969   4.637   2.300  0.7408  0.8428  2.0878
18264THY    CA143899   5.144   4.671   2.258  0.8875  0.4645  0.0070
18264THY    CA243900   5.276   4.637   2.251 -0.0611 -0.0484  0.0115
18264THY    CP143901   5.313   4.490   2.279  0.8778  0.1020 -0.2170
18264THY    HP143902   5.240   4.437   2.340 -0.8227 -0.8990  0.8691
18264THY    CP243903   5.443   4.479   2.359 -1.0924  0.8201 -0.2995
18264THY    HP243904   5.411   4.525   2.453 -0.6244  1.8214 -1.9201
18264THY    HP343905   5.524   4.523   2.300 -1.5897 -0.4606 -1.0261
18264THY    HP443906   5.471   4.375   2.381 -0.5710  0.0817 -0.3248
18264THY    CP343907   5.317   4.403   2.158 -0.6474  0.0468  0.0865
18264THY    HP543908   5.327   4.296   2.182 -2.9880 -1.6347 -0.5959
18264THY    HP643909   5.385   4.444   2.082 -2.7474 -1.1063  1.5838
18264THY    HP743910   5.216   4.386   2.119  0.4070 -2.4483 -0.9916
18264THY    CA343911   5.365   4.728   2.202 -0.8065  0.5688 -0.3325
18264THY    HA343912   5.469   4.704   2.186 -0.6714  2.4717 -1.1049
18264THY    CA443913   5.335   4.859   2.171 -0.0519 -0.5340  0.0750
18264THY    HA443914   5.418   4.922   2.139 -0.6238 -1.8796  0.1850
18264THY    CA543915   5.206   4.896   2.194  0.6871  0.1257 -0.4468
18264THY    CM143916   5.161   5.036   2.177  1.1608  0.2936  0.1253
18264THY    HM143917   5.085   5.040   2.098  0.4522  1.0173  3.1482
18264THY    HM243918   5.238   5.102   2.137 -1.2774 -1.8007  1.8881
18264THY    HM343919   5.117   5.078   2.268  2.8249  2.6828 -2.9153
18264THY    CA643920   5.105   4.801   2.219 -0.2793 -0.5882 -0.1190
18264THY    HA643921   5.004   4.840   2.233  0.3073 -0.8721  1.5914
18265THY      O43922   0.303   8.198   4.673  0.2457 -0.5159 -0.0870
18265THY     HO43923   0.274   8.147   4.750 -0.6702 -0.1150  0.9875
18265THY    CA143924   0.240   8.317   4.679  0.3977  0.6235  0.2513
18265THY    CA243925   0.198   8.386   4.564  0.0408  0.3294 -0.5906
18265THY    CP143926   0.225   8.326   4.427  0.4612  0.0075  0.0848
18265THY    HP143927   0.287   8.236   4.435  2.0711 -0.4624  1.1060
18265THY    CP243928   0.299   8.429   4.345  0.4107 -0.1296 -0.2700
18265THY    HP243929   0.229   8.494   4.291 -0.1388 -0.2841 -0.9687
18265THY    HP343930   0.371   8.382   4.277  3.1270  1.7487  0.9430
18265THY    HP443931   0.357   8.497   4.407 -0.2181  2.6455 -2.1045
18265THY    CP343932   0.089   8.293   4.361 -0.1068  0.5816 -0.2391
18265THY    HP543933   0.111   8.238   4.268  1.4045 -0.4067  1.8611
18265THY    HP643934   0.029   8.378   4.326 -0.8584  2.4580  0.0341
18265THY    HP743935   0.033   8.234   4.434 -2.1972  0.1658  1.1416
18265THY    CA343936   0.132   8.515   4.577 -0.1829  0.2338 -0.0141
18265THY    HA343937   0.103   8.559   4.483 -2.1888  0.3967 -0.8702
18265THY    CA443938   0.107   8.571   4.698 -0.5718 -0.5190 -0.1782
18265THY    HA443939   0.054   8.666   4.706 -2.6474 -1.2918 -1.2284
18265THY    CA543940   0.154   8.500   4.812  0.0597  0.1436 -0.2808
18265THY    CM143941   0.137   8.564   4.944 -0.5901  0.4105 -0.3046
18265THY    HM143942   0.181   8.506   5.025 -0.4114  1.4297  1.2086
18265THY    HM243943   0.032   8.553   4.974 -0.8078  0.5573  1.7727
18265THY    HM343944   0.160   8.671   4.948  0.1308 -1.1229 -0.3641
18265THY    CA643945   0.205   8.368   4.800  0.3594  0.0015  0.2604
18265THY    HA643946   0.243   8.318   4.888  0.5776  0.1104  0.6098
18266THY      O43947   7.986   3.128   2.167 -0.1953 -0.1220 -0.2191
18266THY     HO43948   8.015   3.211   2.124  0.9763  0.4734 -0.3165
18266THY    CA143949   8.009   3.036   2.078  0.6620  0.2523 -0.1668
18266THY    CA243950   7.945   2.903   2.085  0.5577  0.4529  0.0956
18266THY    CP143951   7.854   2.868   2.199  0.1028  0.1762  0.2954
18266THY    HP143952   7.848   2.958   2.262 -1.6213  0.8000 -0.2119
18266THY    CP243953   7.918   2.750   2.274  0.3213 -0.0858  0.0545
18266THY    HP243954   7.893   2.654   2.227 -0.0740 -2.5039  1.2699
18266THY    HP343955   7.869   2.743   2.372 -0.4309 -0.4297  0.3355
18266THY    HP443956   8.026   2.763   2.280  0.1994 -0.7329  1.5632
18266THY    CP343957   7.706   2.833   2.153 -0.0706  0.1188 -0.3488
18266THY    HP543958   7.701   2.724   2.149 -1.7060  2.2114 -0.4238
18266THY    HP643959   7.676   2.871   2.055 -0.7119 -0.0778 -1.3288
18266THY    HP743960   7.636   2.878   2.224  0.8330  0.8666 -0.0892
18266THY    CA343961   7.960   2.813   1.976  0.0253 -0.8998 -0.3733
18266THY    HA343962   7.911   2.717   1.964  2.1000 -3.8375 -1.1925
18266THY    CA443963   8.043   2.846   1.873  0.0822 -0.4946 -0.1347
18266THY    HA443964   8.065   2.782   1.789  0.7860  0.5445 -1.3046
18266THY    CA543965   8.105   2.977   1.870  0.7394 -0.0790  0.2107
18266THY    CM143966   8.188   3.016   1.747  1.0598  0.2627 -0.8583
18266THY    HM143967   8.276   3.079   1.766  1.1113  0.3733 -0.9659
18266THY    HM243968   8.124   3.073   1.678  1.5073  1.5415  1.3044
18266THY    HM343969   8.226   2.926   1.698  0.9497 -0.2649 -0.6257
18266THY    CA643970   8.080   3.072   1.967 -0.8465  0.5744 -0.3151
18266THY    HA643971   8.124   3.171   1.962  0.1918  1.2582 -0.7231
18267THY      O43972   6.436   5.438   6.484 -0.7416  0.1932  0.7584
18267THY     HO43973   6.519   5.429   6.533  1.5345 -3.4163 -0.2062
18267THY    CA143974   6.372   5.553   6.523  0.8565 -0.1110 -0.1858
18267THY    CA243975   6.254   5.591   6.462 -0.0854  0.1767 -0.8760
18267THY    CP143976   6.188   5.498   6.353 -0.1703 -0.4651 -0.5271
18267THY    HP143977   6.256   5.423   6.312  1.4376  2.0120 -0.5326
18267THY    CP243978   6.118   5.561   6.226 -0.0383  0.2567 -0.0172
18267THY    HP243979   6.181   5.625   6.164 -2.4566 -2.0857  0.2603
18267THY    HP343980   6.027   5.620   6.243  0.3738 -1.4177  1.1707
18267THY    HP443981   6.105   5.473   6.164  3.1264 -2.5718  1.2966
18267THY    CP343982   6.092   5.397   6.427  0.3355  0.2853 -0.0362
18267THY    HP543983   6.059   5.320   6.356 -2.4800  0.7151  0.6436
18267THY    HP643984   5.999   5.441   6.465 -0.2405 -0.4616 -0.5880
18267THY    HP743985   6.147   5.352   6.511 -0.2535  1.1900  0.8796
18267THY    CA343986   6.197   5.717   6.495 -0.2443 -0.6867 -0.8268
18267THY    HA343987   6.110   5.752   6.439 -0.8777 -0.6324 -2.2466
18267THY    CA443988   6.257   5.796   6.600 -0.5116 -0.5342 -0.3261
18267THY    HA443989   6.212   5.889   6.632  1.2808  0.1735  0.3431
18267THY    CA543990   6.378   5.762   6.655 -0.6904 -0.2406  1.0617
18267THY    CM143991   6.455   5.850   6.750  0.1085 -0.4035 -0.4133
18267THY    HM143992   6.550   5.888   6.710  1.9568  2.6983 -1.3997
18267THY    HM243993   6.460   5.794   6.845 -0.6135 -0.2975 -0.3102
18267THY    HM343994   6.404   5.939   6.787  0.7758  0.4745 -0.3785
18267THY    CA643995   6.434   5.639   6.615  0.2413 -0.5704  0.1502
18267THY    HA643996   6.528   5.615   6.665 -0.4391  2.2143  2.7657
18268THY      O43997   0.893   5.181   6.301 -0.0421 -0.5813 -0.4113
18268THY     HO43998   0.874   5.229   6.219 -1.6437 -0.0499 -0.0849
18268THY    CA143999   1.021   5.148   6.299 -0.2239  0.2473  0.1018
18268THY    CA244000   1.090   5.093   6.407  0.3025  0.6466  0.5510
18268THY    CP144001   1.009   5.052   6.532  0.1508 -0.2747 -0.1810
18268THY    HP144002   0.953   5.137   6.572  0.3315  1.5008 -0.8503
18268THY    CP244003   1.093   5.015   6.657  0.2695 -0.6130  0.4192
18268THY    HP244004   1.133   4.914   6.642 -1.0190 -2.0712  0.1068
18268THY    HP344005   1.022   5.021   6.740  0.5907  0.0121 -2.7444
18268THY    HP444006   1.174   5.083   6.688  1.2293 -0.6135 -0.6930
18268THY    CP344007   0.921   4.929   6.508 -0.1603 -0.0180  0.0535
18268THY    HP544008   0.980   4.839   6.490  0.5394 -0.0556  0.5165
18268THY    HP644009   0.853   4.943   6.422 -1.6680  1.3604  1.7507
18268THY    HP744010   0.864   4.919   6.601  1.3328  0.9033 -0.2186
18268THY    CA344011   1.230   5.081   6.393 -0.1243  0.3699 -0.3557
18268THY    HA344012   1.288   5.052   6.481 -0.3241  0.9631  0.9264
18268THY    CA444013   1.303   5.109   6.272  0.3274  0.3607  0.0937
18268THY    HA444014   1.409   5.085   6.264  0.3855 -2.9250  0.9901
18268THY    CA544015   1.225   5.151   6.171  0.1373  0.6136 -0.2942
18268THY    CM144016   1.285   5.159   6.025  0.2331  0.0466 -0.1516
18268THY    HM144017   1.279   5.261   5.986  0.2536 -0.0666 -0.1929
18268THY    HM244018   1.221   5.112   5.949 -0.5715 -1.1819  2.6831
18268THY    HM344019   1.387   5.120   6.016 -0.4397 -1.0671 -1.7925
18268THY    CA644020   1.086   5.167   6.182 -0.9627  0.0667 -0.9938
18268THY    HA644021   1.039   5.179   6.085  1.1307 -0.8867  0.0868
18269THY      O44022   0.655   8.915   6.653 -0.4299 -0.7607 -0.0356
18269THY     HO44023   0.562   8.906   6.682  0.2580  1.9650  0.6455
18269THY    CA144024   0.722   8.978   6.752  0.3409  0.3671  0.3843
18269THY    CA244025   0.848   8.931   6.795  0.5525  0.1809  0.2750
18269THY    CP144026   0.914   8.801   6.745  0.0806 -0.6082 -0.1796
18269THY    HP144027   0.864   8.760   6.656  1.7438 -1.0485 -1.3036
18269THY    CP244028   0.895   8.686   6.837  0.4620  0.0467  0.1872
18269THY    HP244029   0.934   8.592   6.797 -0.6429 -0.4083 -0.0978
18269THY    HP344030   0.789   8.672   6.862  0.3247 -0.9767 -0.7909
18269THY    HP444031   0.950   8.712   6.928  0.6075 -0.8557  3.3934
18269THY    CP344032   1.060   8.822   6.707 -0.2616 -0.3550  0.1573
18269THY    HP544033   1.124   8.848   6.792 -2.1991  1.3576 -0.4653
18269THY    HP644034   1.076   8.895   6.626  1.1876 -0.5573 -0.3363
18269THY    HP744035   1.102   8.732   6.659 -0.6052  0.2283 -0.3258
18269THY    CA344036   0.898   8.996   6.906  0.1014 -0.9334 -0.2572
18269THY    HA344037   0.991   8.961   6.951  0.2856 -0.1009  1.2182
18269THY    CA444038   0.846   9.116   6.948  0.3118  0.6988 -0.9833
18269THY    HA444039   0.892   9.180   7.022 -0.8401  0.2413  0.4362
18269THY    CA544040   0.726   9.171   6.893  0.2474  0.0042  0.8254
18269THY    CM144041   0.671   9.309   6.924  0.2488 -0.4836 -0.2785
18269THY    HM144042   0.751   9.361   6.978  2.2459 -1.8558 -1.7758
18269THY    HM244043   0.575   9.299   6.977  0.2426 -0.4160  0.1230
18269THY    HM344044   0.649   9.364   6.832 -2.2622 -0.9965 -1.9503
18269THY    CA644045   0.662   9.093   6.795  0.1228 -0.2391  0.2733
18269THY    HA644046   0.571   9.128   6.748 -0.9239  2.6249  1.7032
18270THY      O44047   2.492   8.368   6.661  0.1661 -0.2089 -0.0975
18270THY     HO44048   2.480   8.272   6.671 -4.6503  0.3960  0.3523
18270THY    CA144049   2.610   8.401   6.722  0.2340  0.0369  0.0793
18270THY    CA244050   2.642   8.540   6.740  0.4744  0.3711 -0.0187
18270THY    CP144051   2.541   8.648   6.697 -0.3638  0.2650  0.7703
18270THY    HP144052   2.476   8.613   6.617 -1.8106  1.0310  1.6396
18270THY    CP244053   2.622   8.764   6.649 -0.5991  0.1816 -0.5988
18270THY    HP244054   2.558   8.834   6.593 -0.2585  1.3729  0.7111
18270THY    HP344055   2.699   8.731   6.578  0.4906  1.1620 -0.1838
18270THY    HP444056   2.680   8.816   6.725 -0.8344  0.2593 -0.4510
18270THY    CP344057   2.444   8.700   6.803 -0.3801  0.3457 -0.0079
18270THY    HP544058   2.503   8.770   6.864 -0.5692 -0.1064  0.5461
18270THY    HP644059   2.403   8.625   6.872  0.0919 -2.8257 -3.4693
18270THY    HP744060   2.364   8.757   6.756  1.3583 -2.4387  0.3003
18270THY    CA344061   2.769   8.570   6.795  0.3294  0.4818 -0.6992
18270THY    HA344062   2.809   8.670   6.814 -1.9229 -0.3720  0.4365
18270THY    CA444063   2.843   8.465   6.858  0.7055  0.0815  0.5788
18270THY    HA444064   2.921   8.492   6.929  1.8166 -0.4074 -1.1333
18270THY    CA544065   2.801   8.327   6.842 -0.0316 -0.2357  0.1552
18270THY    CM144066   2.886   8.213   6.905 -0.1471  0.1917  0.2781
18270THY    HM144067   2.831   8.148   6.974 -0.1232 -1.3661 -1.4879
18270THY    HM244068   2.974   8.248   6.960  0.2606  0.4671 -1.1274
18270THY    HM344069   2.923   8.153   6.820  0.2008  0.0138  0.7401
18270THY    CA644070   2.690   8.295   6.770  0.4490 -0.1232 -0.1477
18270THY    HA644071   2.664   8.191   6.751 -0.1475  1.2637 -0.2767
18271THY      O44072   7.057   7.711   5.915 -0.2017 -0.1225 -0.3128
18271THY     HO44073   7.072   7.643   5.847  2.4211 -0.3629  0.4158
18271THY    CA144074   7.036   7.646   6.032  0.8286  0.2368  0.0908
18271THY    CA244075   7.102   7.682   6.146 -0.2371 -0.1508  0.0776
18271THY    CP144076   7.203   7.795   6.139 -0.0805 -0.4687  0.1177
18271THY    HP144077   7.224   7.834   6.038 -0.8273 -0.2414  1.1350
18271THY    CP244078   7.340   7.759   6.181 -0.1200  0.2535  0.0364
18271THY    HP244079   7.420   7.831   6.160  0.5948  0.8286 -0.5736
18271THY    HP344080   7.371   7.676   6.115  0.4331 -1.3302  1.4533
18271THY    HP444081   7.350   7.726   6.285  1.0658  0.2554  0.3378
18271THY    CP344082   7.160   7.919   6.217 -0.5232 -0.0213 -0.1641
18271THY    HP544083   7.224   8.007   6.203  0.4174 -1.0328 -0.9750
18271THY    HP644084   7.165   7.883   6.321  0.9606  0.7553  2.0473
18271THY    HP744085   7.058   7.948   6.190 -0.6571 -3.4664 -3.1242
18271THY    CA344086   7.101   7.591   6.256  0.6663 -0.1906 -0.2416
18271THY    HA344087   7.167   7.614   6.339  0.0942  1.2182 -3.2066
18271THY    CA444088   7.019   7.472   6.252  0.6326  0.4026 -0.5447
18271THY    HA444089   7.008   7.399   6.331  0.3109 -0.0828 -1.0263
18271THY    CA544090   6.952   7.440   6.132  0.2058 -0.4285  0.4351
18271THY    CM144091   6.898   7.302   6.115  0.2226  0.1104 -0.6328
18271THY    HM144092   6.900   7.257   6.015 -1.4566  0.8040 -2.4124
18271THY    HM244093   6.798   7.299   6.161 -1.5992 -3.4296  0.2397
18271THY    HM344094   6.962   7.227   6.164  0.9972 -2.3316 -1.6636
18271THY    CA644095   6.968   7.523   6.020  0.1393 -0.0599  0.2106
18271THY    HA644096   6.927   7.488   5.926  0.2300  0.0938 -0.3143
18272THY      O44097   4.439   8.489   6.822  0.8851 -0.2567 -0.6611
18272THY     HO44098   4.408   8.573   6.785 -0.9095  1.4991 -0.4871
18272THY    CA144099   4.396   8.396   6.725  0.0112 -0.7973 -0.3628
18272THY    CA244100   4.391   8.256   6.758 -0.6220 -0.2353 -0.6867
18272THY    CP144101   4.457   8.214   6.892  0.2076  0.9725  0.1361
18272THY    HP144102   4.464   8.302   6.958  1.3207  0.1130  0.7094
18272THY    CP244103   4.598   8.171   6.867 -0.0338 -0.2970 -0.3008
18272THY    HP244104   4.598   8.071   6.823  1.8819  0.1483 -0.5331
18272THY    HP344105   4.653   8.173   6.962 -0.2511 -0.1797  0.5924
18272THY    HP444106   4.640   8.240   6.794  0.6272 -1.1069 -1.5218
18272THY    CP344107   4.371   8.111   6.965  0.0583  0.6290  0.0894
18272THY    HP544108   4.389   8.008   6.933  2.2926 -0.8842  0.8757
18272THY    HP644109   4.265   8.138   6.959  0.3454 -2.5658  0.9467
18272THY    HP744110   4.390   8.127   7.072  0.6976  0.5522 -0.1041
18272THY    CA344111   4.332   8.165   6.671  0.4193 -0.4786  0.0753
18272THY    HA344112   4.330   8.059   6.694  0.5964 -0.2978  0.1087
18272THY    CA444113   4.275   8.217   6.556 -0.1354  0.1247 -0.9625
18272THY    HA444114   4.221   8.146   6.495  1.7816  1.3453 -3.6597
18272THY    CA544115   4.278   8.351   6.520  0.0618 -0.1232  0.1370
18272THY    CM144116   4.199   8.405   6.396  0.3456 -0.6574  0.7317
18272THY    HM144117   4.268   8.467   6.339  1.5121 -1.5124 -1.2528
18272THY    HM244118   4.118   8.474   6.424 -1.3642 -1.0868 -1.0229
18272THY    HM344119   4.160   8.318   6.342  0.0437  1.4936 -0.5418
18272THY    CA644120   4.341   8.441   6.608 -0.1836 -0.3122 -0.5849
18272THY    HA644121   4.338   8.547   6.584  4.5805  0.9408  0.0532
18273THY      O44122   1.897   7.317   3.201  1.0867 -0.8177  0.5903
18273THY     HO44123   1.933   7.244   3.254  2.4780 -0.2626  1.6322
18273THY    CA144124   1.973   7.343   3.094  0.3529  0.4807  0.0837
18273THY    CA244125   1.974   7.463   3.023 -0.3386 -0.4212  0.1690
18273THY    CP144126   1.916   7.592   3.087 -0.1179  0.2144  0.9307
18273THY    HP144127   1.892   7.581   3.193 -0.8978 -0.0624 -0.2228
18273THY    CP244128   1.778   7.623   3.018 -0.0345 -0.9257 -1.0166
18273THY    HP244129   1.733   7.711   3.064 -1.7654 -0.2456 -2.2004
18273THY    HP344130   1.713   7.536   3.033 -0.5923 -0.0207 -0.4541
18273THY    HP444131   1.782   7.637   2.909 -1.0058 -0.9114 -0.5438
18273THY    CP344132   2.009   7.720   3.081 -1.0291  0.1463  0.1067
18273THY    HP544133   1.969   7.810   3.128 -0.4912 -0.7142  0.8165
18273THY    HP644134   2.042   7.749   2.980  2.7597  1.3677  0.4897
18273THY    HP744135   2.101   7.705   3.138  0.1952 -1.3431  1.5795
18273THY    CA344136   2.050   7.473   2.905  0.1165 -0.0099 -0.1290
18273THY    HA344137   2.059   7.569   2.855 -0.6626  0.2887  0.1082
18273THY    CA444138   2.110   7.365   2.857  0.4220  0.1418  0.2914
18273THY    HA444139   2.170   7.362   2.767  0.2186  0.0219 -1.4188
18273THY    CA544140   2.101   7.247   2.923  0.9585  0.1582  0.3907
18273THY    CM144141   2.170   7.124   2.869 -0.4067  0.3058 -0.4349
18273THY    HM144142   2.202   7.064   2.955 -2.4011  1.8303  0.5637
18273THY    HM244143   2.259   7.157   2.813 -0.0286  1.5806  0.8280
18273THY    HM344144   2.103   7.062   2.808 -0.1373  1.1045 -1.5492
18273THY    CA644145   2.037   7.233   3.041  0.4991 -0.3637  0.8713
18273THY    HA644146   2.030   7.136   3.090 -0.1857 -0.7439  0.7198
18274THY      O44147   3.803   6.337   3.870 -0.1464 -0.3164 -1.0416
18274THY     HO44148   3.863   6.297   3.805  1.9483  1.2021 -0.5071
18274THY    CA144149   3.876   6.444   3.924 -0.4284 -0.2334  0.1606
18274THY    CA244150   3.813   6.535   4.013  0.0932  0.0895  0.3797
18274THY    CP144151   3.669   6.510   4.070  0.0955 -0.3440  0.7788
18274THY    HP144152   3.635   6.410   4.044 -1.7691 -2.0624  1.7838
18274THY    CP244153   3.579   6.611   4.004 -0.4362 -0.2535 -0.6686
18274THY    HP244154   3.580   6.591   3.896  0.8869  0.0025 -2.2073
18274THY    HP344155   3.615   6.714   4.017  0.0631 -0.3152 -0.8359
18274THY    HP444156   3.476   6.609   4.041 -0.8863 -1.3273  0.6205
18274THY    CP344157   3.648   6.521   4.224  0.0870 -0.0043 -0.2436
18274THY    HP544158   3.543   6.497   4.242  0.5375 -0.4547 -2.8478
18274THY    HP644159   3.685   6.620   4.253  0.0647  1.6593 -0.6937
18274THY    HP744160   3.709   6.450   4.281 -1.2733 -1.3800 -2.6453
18274THY    CA344161   3.890   6.642   4.057  0.3707  0.8267  0.1727
18274THY    HA344162   3.848   6.716   4.124 -0.6985  1.3433 -0.8551
18274THY    CA444163   4.026   6.661   4.023 -0.3016  0.2832  1.2138
18274THY    HA444164   4.088   6.738   4.066  1.5549 -1.0349  0.5384
18274THY    CA544165   4.078   6.573   3.921 -0.7844  1.4839  0.9848
18274THY    CM144166   4.217   6.593   3.874 -0.3824 -0.0723 -0.3848
18274THY    HM144167   4.203   6.659   3.788  0.1700 -1.7297 -2.3190
18274THY    HM244168   4.256   6.496   3.842 -1.6362 -2.3798 -0.2035
18274THY    HM344169   4.273   6.638   3.956  0.7828 -2.4695  2.9065
18274THY    CA644170   4.002   6.475   3.868  0.7018  0.2138  0.1421
18274THY    HA644171   4.040   6.399   3.801 -2.1496 -0.1585 -1.0809
18275THY      O44172   2.396   4.160   3.001 -0.0017 -0.5621 -0.4631
18275THY     HO44173   2.457   4.234   3.021  0.7838  0.1627 -1.2793
18275THY    CA144174   2.467   4.046   3.033 -0.1160  0.2026 -0.4866
18275THY    CA244175   2.417   3.918   3.019  0.0803 -0.4791  0.1283
18275THY    CP144176   2.280   3.897   2.969  0.5263 -0.3565  0.7791
18275THY    HP144177   2.231   3.992   2.944  2.4450  0.9824  2.2086
18275THY    CP244178   2.195   3.828   3.075  0.2592  0.4662  0.1643
18275THY    HP244179   2.208   3.721   3.054 -1.2709  2.6195 -0.5323
18275THY    HP344180   2.089   3.852   3.062  0.4617 -0.0655  0.7897
18275THY    HP444181   2.228   3.860   3.175 -0.6032  1.1122 -0.8852
18275THY    CP344182   2.279   3.819   2.836 -0.2273  0.1929 -0.1156
18275THY    HP544183   2.203   3.867   2.772  0.9190  0.3145  1.9368
18275THY    HP644184   2.251   3.714   2.852 -0.4743 -0.8527 -0.2269
18275THY    HP744185   2.373   3.829   2.780  0.7862  1.3593 -2.3580
18275THY    CA344186   2.507   3.812   3.049  0.6418  0.3273  0.1892
18275THY    HA344187   2.470   3.710   3.042  0.8308 -0.3582  0.1586
18275THY    CA444188   2.637   3.843   3.094 -0.6406 -0.6504 -0.5477
18275THY    HA444189   2.715   3.775   3.127 -0.0915 -1.0232 -0.1181
18275THY    CA544190   2.681   3.977   3.102  0.4415 -0.3095  0.2589
18275THY    CM144191   2.822   4.017   3.141  0.0094  0.1516 -0.1639
18275THY    HM144192   2.888   4.027   3.054 -0.7634 -0.9519 -3.4006
18275THY    HM244193   2.865   3.935   3.200  0.8616 -1.0327 -0.6006
18275THY    HM344194   2.821   4.108   3.202 -0.0395  0.6092 -0.4658
18275THY    CA644195   2.597   4.075   3.064 -0.2016 -0.2281 -0.4070
18275THY    HA644196   2.633   4.177   3.063 -3.0544 -0.1650  0.6839
18276THY      O44197   3.600   1.765   3.671  0.4301 -0.3469  0.1203
18276THY     HO44198   3.549   1.838   3.711  0.7789 -0.9345  0.6972
18276THY    CA144199   3.634   1.799   3.546 -0.2104 -0.3644  0.2106
18276THY    CA244200   3.703   1.705   3.464  0.0685  0.3939 -0.0962
18276THY    CP144201   3.738   1.566   3.500 -0.0201  0.2453  0.5337
18276THY    HP144202   3.700   1.528   3.596  1.1495 -0.4288 -2.6310
18276THY    CP244203   3.892   1.552   3.500 -0.0184 -0.0474  0.1508
18276THY    HP244204   3.929   1.589   3.404 -1.8639 -0.8800 -0.0602
18276THY    HP344205   3.915   1.445   3.516 -1.1800  1.3122  0.0788
18276THY    HP444206   3.942   1.609   3.579  1.2552 -0.7139  0.0010
18276THY    CP344207   3.674   1.465   3.406  0.5898  0.4414 -0.8046
18276THY    HP544208   3.675   1.363   3.446  1.8837 -0.9742 -1.3816
18276THY    HP644209   3.722   1.451   3.309 -0.2409  0.1336 -1.5468
18276THY    HP744210   3.570   1.488   3.384  1.0301 -0.9981 -0.0818
18276THY    CA344211   3.722   1.745   3.328 -0.7716 -0.1982 -0.6871
18276THY    HA344212   3.777   1.678   3.262  0.5794  0.7071 -0.5084
18276THY    CA444213   3.674   1.862   3.276 -0.6348 -0.9145  0.1220
18276THY    HA444214   3.698   1.897   3.176  0.9780 -0.7839 -0.5024
18276THY    CA544215   3.608   1.951   3.358 -0.4966 -0.4448 -0.4793
18276THY    CM144216   3.561   2.076   3.304 -0.4654 -0.0182 -0.0401
18276THY    HM144217   3.482   2.054   3.231 -0.4559  0.4244 -1.6188
18276THY    HM244218   3.639   2.127   3.246  0.2305  0.7889 -0.1714
18276THY    HM344219   3.515   2.144   3.376  2.0328  0.5444  1.1810
18276THY    CA644220   3.590   1.922   3.494 -0.1369 -0.1078 -0.2819
18276THY    HA644221   3.538   1.994   3.556 -0.3532 -0.2857 -0.2847
18277THY      O44222   1.076   7.919   3.004 -0.0062 -0.1583  0.2005
18277THY     HO44223   1.006   7.860   3.038  2.6533  3.3961 -1.2929
18277THY    CA144224   1.157   7.944   3.106  0.2201 -0.4450  0.4353
18277THY    CA244225   1.298   7.938   3.100 -0.0110 -0.9271 -0.2301
18277THY    CP144226   1.368   7.895   2.971  0.2436  0.3791  0.0578
18277THY    HP144227   1.290   7.897   2.893  0.2665  0.3265 -0.7875
18277THY    CP244228   1.430   7.748   2.978 -0.3277  0.3625 -0.2792
18277THY    HP244229   1.339   7.690   2.998 -2.0938  1.3297  2.6165
18277THY    HP344230   1.509   7.729   3.051 -0.2975  0.3137 -0.3417
18277THY    HP444231   1.485   7.724   2.886 -0.3681 -0.0289  1.0609
18277THY    CP344232   1.480   7.996   2.935  0.1392  0.2369  0.3293
18277THY    HP544233   1.566   8.003   3.002 -0.5998  1.0333  2.5789
18277THY    HP644234   1.443   8.099   2.931 -0.8689 -0.5694 -0.0476
18277THY    HP744235   1.519   7.970   2.835  0.6884  0.9454 -1.7313
18277THY    CA344236   1.364   7.972   3.219 -0.1948 -0.3132 -0.6501
18277THY    HA344237   1.472   7.961   3.229  0.1166  0.5561  2.3729
18277THY    CA444238   1.293   8.020   3.338 -1.0657  0.7176 -0.5435
18277THY    HA444239   1.356   8.047   3.422  1.5258 -1.4549  0.5814
18277THY    CA544240   1.157   8.020   3.339  0.3318  0.3095 -0.3509
18277THY    CM144241   1.079   8.064   3.460 -0.5897  0.3522 -0.5006
18277THY    HM144242   1.095   7.997   3.545 -1.1476  0.8074 -0.0642
18277THY    HM244243   0.972   8.065   3.436 -0.4284 -0.4331  0.7200
18277THY    HM344244   1.118   8.163   3.487  0.0624 -2.6452  0.1699
18277THY    CA644245   1.090   7.989   3.224  0.0794  0.2834  0.1212
18277THY    HA644246   0.982   7.990   3.229  0.0498 -0.0044 -0.5775
18278THY      O44247   6.924   2.744   2.646 -0.4284 -0.3018 -0.1565
18278THY     HO44248   7.001   2.789   2.607 -1.1156 -1.5100  0.0073
18278THY    CA144249   6.946   2.606   2.670  0.2250  0.1019 -0.0853
18278THY    CA244250   6.831   2.519   2.681  0.7995 -0.6000 -0.0564
18278THY    CP144251   6.688   2.578   2.655  0.5132 -0.1932 -0.1517
18278THY    HP144252   6.684   2.670   2.715  1.9321 -0.0287 -0.1708
18278THY    CP244253   6.572   2.485   2.713 -0.1921  0.4176  0.2145
18278THY    HP244254   6.481   2.545   2.703  0.0235  0.0285  0.4774
18278THY    HP344255   6.582   2.461   2.820 -0.9200 -0.0221 -2.3314
18278THY    HP444256   6.561   2.391   2.658 -1.5304  0.6985  0.1813
18278THY    CP344257   6.681   2.606   2.500 -0.3704 -0.2280  1.0225
18278THY    HP544258   6.587   2.654   2.468 -0.0450  1.3845  2.8860
18278THY    HP644259   6.680   2.509   2.451 -2.0036  0.1482  0.8175
18278THY    HP744260   6.765   2.671   2.472  0.0632 -0.1165  0.5169
18278THY    CA344261   6.859   2.381   2.709 -0.4718  0.2711  0.5065
18278THY    HA344262   6.772   2.317   2.718 -0.8994  0.5834  1.1251
18278THY    CA444263   6.996   2.333   2.713  0.2079 -0.1193  0.1018
18278THY    HA444264   7.025   2.228   2.715 -1.6261  0.8126 -0.4114
18278THY    CA544265   7.100   2.426   2.711 -0.0112  1.4096 -0.2203
18278THY    CM144266   7.242   2.373   2.726  0.1888  0.0636 -0.0562
18278THY    HM144267   7.267   2.302   2.647 -0.3919 -1.2996  1.2019
18278THY    HM244268   7.265   2.328   2.824 -0.8265 -0.7035 -2.3584
18278THY    HM344269   7.314   2.454   2.708 -0.1212 -2.3669 -0.2404
18278THY    CA644270   7.081   2.564   2.688 -0.1497 -0.0477 -1.0489
18278THY    HA644271   7.158   2.639   2.681 -2.6450 -3.8627  1.5542
18279THY      O44272   7.252   7.336   6.474  0.0245  0.2584 -0.1305
18279THY     HO44273   7.279   7.408   6.533 -2.2418  0.7832  0.3581
18279THY    CA144274   7.341   7.228   6.479  0.2762  0.1485  0.2706
18279THY    CA244275   7.310   7.104   6.436 -0.3167 -0.1210 -0.2258
18279THY    CP144276   7.162   7.087   6.388 -0.1151  0.2818 -0.2444
18279THY    HP144277   7.122   7.174   6.334 -1.5781 -1.8706 -2.1365
18279THY    CP244278   7.053   7.074   6.497 -0.0886 -0.1814 -0.2772
18279THY    HP244279   7.036   7.167   6.553 -1.6822 -0.6132 -0.2708
18279THY    HP344280   7.078   6.996   6.570 -1.0744  1.2582  0.7160
18279THY    HP444281   6.952   7.058   6.456 -0.7007  1.4192 -0.6721
18279THY    CP344282   7.139   6.966   6.291 -0.0969 -0.1854 -0.4733
18279THY    HP544283   7.179   6.871   6.330  0.6108 -0.3490 -0.2516
18279THY    HP644284   7.203   6.971   6.203  0.3255  0.1684  0.5368
18279THY    HP744285   7.032   6.960   6.270 -0.6513  2.1431  0.1228
18279THY    CA344286   7.402   7.000   6.449  0.2190 -0.1485  0.5562
18279THY    HA344287   7.388   6.895   6.424  0.9325 -1.4936  0.7678
18279THY    CA444288   7.524   7.026   6.506 -0.1615 -0.7526  0.3583
18279THY    HA444289   7.588   6.942   6.527  0.2802 -1.2721  0.5612
18279THY    CA544290   7.560   7.152   6.544  0.1605  0.7215  0.1032
18279THY    CM144291   7.693   7.167   6.614  0.2795  0.0260  0.2064
18279THY    HM144292   7.701   7.092   6.694 -0.6418  2.4580  2.4954
18279THY    HM244293   7.701   7.266   6.663  2.6402 -1.5360  0.8676
18279THY    HM344294   7.773   7.164   6.540  1.3629  1.1242  1.0971
18279THY    CA644295   7.469   7.255   6.533 -0.4899  0.2286 -0.3685
18279THY    HA644296   7.491   7.345   6.590 -1.2040  0.1978 -0.1629
18280THY      O44297   1.491   2.929   4.207 -0.3758  0.8907 -0.1238
18280THY     HO44298   1.446   2.975   4.134  0.0277 -0.9941 -2.5194
18280THY    CA144299   1.512   3.014   4.304  0.1424  0.6129  0.5642
18280THY    CA244300   1.565   2.970   4.428  0.6980  0.2165  0.5396
18280THY    CP144301   1.593   2.823   4.449  0.5161  0.1138 -0.6512
18280THY    HP144302   1.543   2.759   4.375 -1.1278  1.2175 -0.7013
18280THY    CP244303   1.536   2.777   4.580  0.2754  0.0464  0.4820
18280THY    HP244304   1.585   2.805   4.674 -0.4886  1.3262 -2.1064
18280THY    HP344305   1.526   2.668   4.591 -1.0737  0.9307  0.6639
18280THY    HP444306   1.439   2.825   4.601  1.0468  2.8946  0.9786
18280THY    CP344307   1.741   2.790   4.448 -0.0498  0.2665  0.0492
18280THY    HP544308   1.779   2.826   4.352 -0.0782  1.0847  2.4529
18280THY    HP644309   1.773   2.685   4.443  0.0982  0.4399  0.0840
18280THY    HP744310   1.798   2.848   4.522  1.7501 -2.2254  1.6631
18280THY    CA344311   1.590   3.063   4.529 -0.3576  0.0580 -0.1891
18280THY    HA344312   1.644   3.035   4.619  0.0916 -0.6210 -1.5758
18280THY    CA444313   1.572   3.200   4.505  0.1716  0.0659  0.7148
18280THY    HA444314   1.597   3.275   4.580  0.9111 -0.3253  0.8693
18280THY    CA544315   1.530   3.241   4.378  0.3952  0.0089  0.1132
18280THY    CM144316   1.481   3.378   4.358  0.0560  0.0107 -0.4207
18280THY    HM144317   1.526   3.410   4.263 -0.2381 -0.4844 -1.4311
18280THY    HM244318   1.503   3.453   4.434  0.3879 -0.5425  0.0497
18280THY    HM344319   1.373   3.380   4.341 -0.0340  0.5941 -0.0821
18280THY    CA644320   1.493   3.147   4.279 -0.3959 -0.7304 -0.3199
18280THY    HA644321   1.463   3.190   4.184  0.9207 -0.7205  0.7183
18281THY      O44322   6.690   8.325   4.184 -1.3033  0.2986  0.1522
18281THY     HO44323   6.677   8.228   4.185  1.7940 -0.1637 -0.3920
18281THY    CA144324   6.824   8.328   4.155 -0.3850 -0.4077  0.5115
18281THY    CA244325   6.887   8.450   4.123  0.3714 -0.2062  0.2191
18281THY    CP144326   6.812   8.586   4.091  0.1536 -0.3909  0.9528
18281THY    HP144327   6.706   8.568   4.114  0.3667  0.0663  0.2340
18281THY    CP244328   6.834   8.620   3.947  0.2136 -0.0143 -0.4303
18281THY    HP244329   6.776   8.555   3.880 -1.1305  0.9727 -0.3008
18281THY    HP344330   6.940   8.611   3.921  0.4126  0.6108  0.0463
18281THY    HP444331   6.793   8.718   3.920 -0.2220  1.5154 -0.1729
18281THY    CP344332   6.861   8.703   4.181 -1.1490  0.1578  0.0508
18281THY    HP544333   6.785   8.781   4.167  0.8476 -0.4320  1.9862
18281THY    HP644334   6.958   8.740   4.148 -1.4859  0.0167  0.8405
18281THY    HP744335   6.867   8.682   4.288  2.5763  0.1783  0.7119
18281THY    CA344336   7.031   8.440   4.115 -1.0064 -0.3364  0.1258
18281THY    HA344337   7.089   8.526   4.082 -0.2257  1.1944  0.2271
18281THY    CA444338   7.102   8.322   4.149 -0.0532 -0.4690  0.4636
18281THY    HA444339   7.210   8.310   4.142 -0.1322 -1.2752  0.1385
18281THY    CA544340   7.027   8.208   4.178  0.1875 -0.3208  0.8449
18281THY    CM144341   7.105   8.083   4.219 -0.1538 -0.0362 -0.1803
18281THY    HM144342   7.123   8.020   4.131 -1.1465 -1.0642  0.9539
18281THY    HM244343   7.053   8.023   4.295 -0.0878  1.3610  1.4535
18281THY    HM344344   7.207   8.111   4.248 -0.0294 -0.1828 -0.4720
18281THY    CA644345   6.891   8.211   4.180  0.1900  0.7523 -0.0996
18281THY    HA644346   6.833   8.122   4.201 -0.1613 -1.5536 -0.4808
18282THY      O44347   4.268   1.176   4.743 -0.1918  0.7302 -0.3941
18282THY     HO44348   4.332   1.180   4.671 -3.6070 -2.6498 -0.5070
18282THY    CA144349   4.187   1.080   4.704 -0.0010  0.5269  0.0129
18282THY    CA244350   4.050   1.077   4.739 -0.3033 -0.5070  0.0098
18282THY    CP144351   3.992   1.179   4.832  0.4191 -0.9048 -0.0442
18282THY    HP144352   4.061   1.262   4.852 -1.1998 -0.1798  1.1810
18282THY    CP244353   3.956   1.108   4.963  0.0390  0.0791 -0.5894
18282THY    HP244354   4.026   1.029   4.992  1.0674 -0.1286  0.2211
18282THY    HP344355   3.864   1.052   4.948  0.3299 -0.2646 -0.9828
18282THY    HP444356   3.947   1.185   5.041  0.2195 -0.4240 -0.0549
18282THY    CP344357   3.866   1.249   4.770  0.6210  0.0309 -0.0151
18282THY    HP544358   3.897   1.287   4.671  2.7341  1.2285  1.6102
18282THY    HP644359   3.845   1.336   4.834 -0.2446  0.7772 -0.7552
18282THY    HP744360   3.778   1.184   4.763 -0.3796 -0.0683  1.2851
18282THY    CA344361   3.978   0.967   4.694 -0.2408 -0.0753 -0.0836
18282THY    HA344362   3.876   0.959   4.731 -0.2874  0.1229  1.2544
18282THY    CA444363   4.041   0.875   4.611 -0.3013 -0.1905  0.4776
18282THY    HA444364   3.973   0.801   4.571 -2.3813 -0.2669  2.3165
18282THY    CA544365   4.176   0.880   4.574  0.0466 -0.8222 -0.3660
18282THY    CM144366   4.230   0.782   4.482  0.6936  0.0133  0.7016
18282THY    HM144367   4.257   0.690   4.535 -0.6305  0.0879  0.3365
18282THY    HM244368   4.319   0.824   4.433  1.0455 -0.7838 -0.8866
18282THY    HM344369   4.167   0.757   4.396 -0.2175  1.0353 -0.6794
18282THY    CA644370   4.258   0.976   4.631  0.1221 -0.4700 -0.0262
18282THY    HA644371   4.366   0.977   4.619  0.0744 -0.9037 -0.1995
18283THY      O44372   1.609   5.571   6.498  0.0096  0.1993 -0.1207
18283THY     HO44373   1.600   5.572   6.594 -1.0150  0.1134  0.9917
18283THY    CA144374   1.493   5.522   6.444  0.1620 -0.1139 -0.8769
18283THY    CA244375   1.478   5.502   6.303  0.5890  0.1201 -0.1383
18283THY    CP144376   1.578   5.554   6.199  0.1937 -0.4971  0.8534
18283THY    HP144377   1.678   5.563   6.244 -0.5267  1.2901  0.4321
18283THY    CP244378   1.545   5.692   6.147  0.5568  0.2348  0.3796
18283THY    HP244379   1.445   5.681   6.103  0.1061  1.3160  0.0413
18283THY    HP344380   1.620   5.722   6.073  2.8227  1.0175 -2.8161
18283THY    HP444381   1.541   5.763   6.230 -0.7764  0.6351 -0.1257
18283THY    CP344382   1.605   5.454   6.091 -0.1143  0.5543  0.0954
18283THY    HP544383   1.587   5.349   6.115  0.6546 -0.8017 -0.3844
18283THY    HP644384   1.709   5.464   6.056  0.1744  1.0869 -0.8495
18283THY    HP744385   1.542   5.481   6.005  1.2027 -0.2221  0.8130
18283THY    CA344386   1.349   5.462   6.258 -0.2756 -0.0866  0.2634
18283THY    HA344387   1.315   5.456   6.155 -4.2537  1.1426 -1.7784
18283THY    CA444388   1.244   5.439   6.347  0.6632  0.4689  0.2825
18283THY    HA444389   1.148   5.418   6.301 -0.0187  1.2802  1.4923
18283THY    CA544390   1.263   5.449   6.485  0.9626  0.2177  0.2011
18283THY    CM144391   1.150   5.419   6.578 -0.2772 -0.3116  0.3627
18283THY    HM144392   1.153   5.310   6.587  0.3775 -1.2337  0.2989
18283THY    HM244393   1.049   5.437   6.538 -0.2116 -0.5012  0.2989
18283THY    HM344394   1.149   5.479   6.671  0.7955 -0.9862  1.4726
18283THY    CA644395   1.391   5.493   6.532  0.3290 -0.8414 -0.1606
18283THY    HA644396   1.419   5.506   6.636  0.8564 -1.1328  1.2407
18284THY      O44397   5.325   6.015   6.735  0.2612 -0.3361 -0.4627
18284THY     HO44398   5.326   6.110   6.714  0.6719 -0.2146 -0.4401
18284THY    CA144399   5.194   5.981   6.735 -0.3348  0.1056 -0.7141
18284THY    CA244400   5.132   5.948   6.854 -0.5597 -1.1206 -0.3704
18284THY    CP144401   5.210   5.960   6.987 -0.5738 -0.1922 -0.6581
18284THY    HP144402   5.318   5.951   6.971 -0.0966  1.3992  1.2980
18284THY    CP244403   5.183   5.859   7.092  0.0843 -0.1534  0.0969
18284THY    HP244404   5.080   5.870   7.125  0.0394  0.7014 -2.2805
18284THY    HP344405   5.242   5.882   7.181 -0.2728  0.2257 -0.4367
18284THY    HP444406   5.208   5.756   7.063  0.8142  1.9168 -0.3549
18284THY    CP344407   5.175   6.097   7.044  0.6659 -0.0354  0.9350
18284THY    HP544408   5.241   6.124   7.127 -0.4975  0.3725  2.7360
18284THY    HP644409   5.069   6.083   7.069 -0.1296 -3.3151  0.1834
18284THY    HP744410   5.181   6.178   6.969  0.8420  1.4672  2.3707
18284THY    CA344411   4.999   5.925   6.862  1.2576  0.7081 -0.0542
18284THY    HA344412   4.955   5.910   6.961  2.4749  1.4489  1.0647
18284THY    CA444413   4.921   5.919   6.744 -0.1212 -0.4241  0.5320
18284THY    HA444414   4.815   5.899   6.752 -0.2329  1.0457  1.5376
18284THY    CA544415   4.980   5.949   6.619 -0.8611 -0.2037  0.1250
18284THY    CM144416   4.903   5.950   6.487  0.4058  0.2421  0.3542
18284THY    HM144417   4.960   5.966   6.395 -1.0036 -0.7326  0.0038
18284THY    HM244418   4.820   6.021   6.497  1.2574 -0.7200  1.5260
18284THY    HM344419   4.855   5.853   6.470 -0.4945 -0.9490  0.9752
18284THY    CA644420   5.120   5.976   6.618  0.7867  0.7503 -0.2697
18284THY    HA644421   5.157   5.995   6.518 -0.0366  0.6771  1.0161
18285THY      O44422   6.348   5.914   4.846 -0.9199 -0.3437 -0.0310
18285THY     HO44423   6.417   5.871   4.793  0.7483  0.1666  1.8663
18285THY    CA144424   6.371   6.047   4.831 -0.4661 -0.3364  0.4948
18285THY    CA244425   6.284   6.148   4.869  0.2170 -0.3156 -0.5778
18285THY    CP144426   6.155   6.101   4.928  0.1234 -0.1769 -0.7295
18285THY    HP144427   6.132   6.000   4.892  1.0278 -0.8584 -0.7129
18285THY    CP244428   6.037   6.190   4.886  0.6112 -0.4809  0.0944
18285THY    HP244429   6.031   6.284   4.941  0.2400 -0.1480 -0.1217
18285THY    HP344430   5.943   6.137   4.903  0.4227  1.4667  0.9615
18285THY    HP444431   6.041   6.208   4.778  1.5827 -0.4972 -0.1409
18285THY    CP344432   6.171   6.095   5.084  0.1976  0.0091  1.0235
18285THY    HP544433   6.236   6.008   5.098 -3.1705 -3.1725 -2.4342
18285THY    HP644434   6.084   6.066   5.145  0.3995 -0.1928 -0.0603
18285THY    HP744435   6.213   6.190   5.117  0.3603 -0.7707  1.2341
18285THY    CA344436   6.319   6.282   4.854  0.1904 -0.4982 -0.3256
18285THY    HA344437   6.255   6.362   4.891  0.6021 -0.6181  0.0649
18285THY    CA444438   6.447   6.319   4.818  0.4690  0.6678 -0.0575
18285THY    HA444439   6.488   6.419   4.808  1.9478  2.0394 -0.4755
18285THY    CA544440   6.531   6.220   4.770 -0.2162 -0.5437  0.3580
18285THY    CM144441   6.671   6.266   4.733 -0.0002  0.2786  0.3359
18285THY    HM144442   6.699   6.355   4.790  0.8654 -1.1311  0.9872
18285THY    HM244443   6.687   6.300   4.630 -0.9077 -0.1328 -0.4235
18285THY    HM344444   6.741   6.183   4.743 -1.5576 -1.9269 -1.3653
18285THY    CA644445   6.497   6.084   4.784  0.3722 -0.2161 -0.2681
18285THY    HA644446   6.575   6.011   4.764 -0.3810 -0.0708 -1.1294
18286THY      O44447   4.169   6.129   7.874  0.0147 -0.2501 -0.3436
18286THY     HO44448   4.080   6.155   7.846 -0.3504  1.2033  0.0760
18286THY    CA144449   4.246   6.101   7.769 -0.0480  0.1589  0.4614
18286THY    CA244450   4.357   6.012   7.770 -0.1699 -0.1305 -0.2253
18286THY    CP144451   4.383   5.940   7.910  1.1197  0.9663 -0.7067
18286THY    HP144452   4.320   5.990   7.985 -0.9327 -2.0023  1.4708
18286THY    CP244453   4.534   5.957   7.944  0.4252  0.0475 -0.3876
18286THY    HP244454   4.555   5.909   8.040 -3.7891  1.5071  0.2022
18286THY    HP344455   4.556   6.064   7.950  0.1387 -1.7537 -0.2010
18286THY    HP444456   4.584   5.915   7.856  0.9328  0.2788 -0.2713
18286THY    CP344457   4.341   5.795   7.908  0.3806  0.5147  0.5127
18286THY    HP544458   4.426   5.742   7.865 -0.0078  0.8325 -0.3918
18286THY    HP644459   4.243   5.783   7.861 -0.6622  2.6695  0.0336
18286THY    HP744460   4.329   5.749   8.007  0.8951 -0.6123 -2.1654
18286THY    CA344461   4.429   5.993   7.653  0.3204 -0.2461  0.2651
18286THY    HA344462   4.509   5.919   7.647  0.9097 -0.0257  0.8712
18286THY    CA444463   4.382   6.048   7.534 -0.1836 -0.7354 -0.4283
18286THY    HA444464   4.423   6.026   7.436 -0.5865 -1.0733  0.2939
18286THY    CA544465   4.277   6.134   7.530  0.0164 -0.3070  0.3613
18286THY    CM144466   4.225   6.186   7.399  0.3600  0.2521  0.2859
18286THY    HM144467   4.275   6.141   7.312  3.2833  1.4429  1.0003
18286THY    HM244468   4.242   6.294   7.387  1.7984  0.2728  0.0757
18286THY    HM344469   4.117   6.168   7.397  0.4387 -1.4757 -0.1423
18286THY    CA644470   4.210   6.163   7.652 -0.9727  0.1438 -1.0132
18286THY    HA644471   4.131   6.237   7.646  0.1550 -0.1149  0.2159
18287THY      O44472   4.706   1.220   4.766  0.3067  0.2475 -0.7050
18287THY     HO44473   4.671   1.158   4.832 -3.1335 -0.2745  0.4757
18287THY    CA144474   4.763   1.140   4.684  0.2266 -0.1087  0.0365
18287THY    CA244475   4.860   1.177   4.595 -0.9173 -0.7037  0.2068
18287THY    CP144476   4.933   1.307   4.594  0.2454  0.5829 -0.5405
18287THY    HP144477   4.893   1.366   4.677  0.2024 -1.3082  2.3309
18287THY    CP244478   4.913   1.374   4.462  0.3453 -0.2227  1.0105
18287THY    HP244479   4.970   1.467   4.471  1.7530 -0.5660  0.2219
18287THY    HP344480   4.808   1.380   4.433  0.6645 -1.8283 -0.2923
18287THY    HP444481   4.964   1.328   4.376 -0.8327  0.1771 -1.1625
18287THY    CP344482   5.078   1.301   4.635 -0.6057  0.1174  0.0729
18287THY    HP544483   5.098   1.233   4.719  0.7000  1.4718  2.0361
18287THY    HP644484   5.114   1.397   4.673  0.1966  2.4940 -1.0888
18287THY    HP744485   5.141   1.276   4.549  0.3111  1.5530 -3.1734
18287THY    CA344486   4.911   1.079   4.502 -0.1232  0.0660  0.2182
18287THY    HA344487   4.982   1.106   4.425  0.8373  1.2513  1.1775
18287THY    CA444488   4.866   0.947   4.512  0.2503 -0.3573 -0.2226
18287THY    HA444489   4.911   0.870   4.450  1.6138 -3.1840  2.5936
18287THY    CA544490   4.777   0.911   4.604  0.4512  0.3154  0.4222
18287THY    CM144491   4.718   0.772   4.613 -0.1387  0.3526 -0.0882
18287THY    HM144492   4.610   0.777   4.593 -0.2500  0.7843 -0.6228
18287THY    HM244493   4.738   0.726   4.711 -2.0283 -0.0822 -2.0375
18287THY    HM344494   4.754   0.711   4.530 -0.0847  1.5176 -1.7030
18287THY    CA644495   4.722   1.007   4.688 -0.3726  0.1800 -0.1481
18287THY    HA644496   4.629   0.992   4.742 -1.0227 -0.0140  2.5175
18288THY      O44497   4.481   2.059   4.830  0.2556  0.1679 -0.1413
18288THY     HO44498   4.452   1.975   4.870  0.0746  0.2602 -0.0329
18288THY    CA144499   4.593   2.096   4.896  0.4281 -0.4437  0.8711
18288THY    CA244500   4.665   2.202   4.851 -0.1092  0.1207 -0.1433
18288THY    CP144501   4.651   2.264   4.715  0.1715  0.4824 -0.1854
18288THY    HP144502   4.570   2.201   4.676 -1.0096  2.0170  0.3234
18288THY    CP244503   4.780   2.246   4.634 -0.2414 -0.0789  0.0416
18288THY    HP244504   4.769   2.281   4.531  0.5476 -0.3942 -0.6093
18288THY    HP344505   4.807   2.140   4.630  1.4508 -1.1120  0.4683
18288THY    HP444506   4.866   2.299   4.676 -0.9933  0.5904  0.7629
18288THY    CP344507   4.609   2.411   4.712 -0.1510 -0.5493  0.2378
18288THY    HP544508   4.508   2.429   4.751  0.9823  2.2331  1.1978
18288THY    HP644509   4.622   2.446   4.609 -0.3425  0.2136  2.8111
18288THY    HP744510   4.684   2.470   4.766 -0.3403 -0.4350  0.3782
18288THY    CA344511   4.784   2.237   4.928 -0.5121  0.1897  0.5717
18288THY    HA344512   4.867   2.300   4.897  0.1027  0.2752 -0.1746
18288THY    CA444513   4.809   2.169   5.048  1.1208  0.8634  0.3422
18288THY    HA444514   4.895   2.204   5.105  2.4645 -1.9273  1.9281
18288THY    CA544515   4.721   2.083   5.108  0.1616  0.6546 -0.8437
18288THY    CM144516   4.755   2.021   5.247 -0.0556  0.6312  0.0364
18288THY    HM144517   4.691   2.074   5.319 -0.7838 -0.7611  1.1444
18288THY    HM244518   4.860   2.029   5.276  0.2900 -0.3718 -0.6215
18288THY    HM344519   4.726   1.916   5.255 -1.7613  4.5515  0.6104
18288THY    CA644520   4.612   2.045   5.027  0.6522 -0.0873 -0.1751
18288THY    HA644521   4.549   1.967   5.068  0.2371  0.9556  0.6810
18289THY      O44522   1.185   1.246   6.623 -0.2427 -0.3612  0.1392
18289THY     HO44523   1.203   1.325   6.569 -0.8241 -0.5200  0.1749
18289THY    CA144524   1.226   1.275   6.749  0.7921  0.4394  0.1228
18289THY    CA244525   1.292   1.194   6.840  0.4399  0.7356  0.2505
18289THY    CP144526   1.318   1.051   6.784 -0.4565 -0.3055  0.0394
18289THY    HP144527   1.321   1.051   6.675 -1.6305 -0.3516  0.8210
18289THY    CP244528   1.204   0.959   6.841 -1.3289  0.3055  0.2960
18289THY    HP244529   1.200   0.978   6.949  0.1505  0.5144 -0.4101
18289THY    HP344530   1.232   0.853   6.829 -0.1789  0.5440  0.5516
18289THY    HP444531   1.116   0.992   6.784 -0.8543 -0.0977  0.8931
18289THY    CP344532   1.452   0.987   6.837 -0.1091  0.6668 -0.2416
18289THY    HP544533   1.539   1.048   6.809 -0.1769 -1.1527 -0.9106
18289THY    HP644534   1.469   0.886   6.798 -1.1018  0.1794 -0.2325
18289THY    HP744535   1.452   0.986   6.946 -1.1658  0.6747 -0.6180
18289THY    CA344536   1.337   1.244   6.964 -0.3937  0.1735 -0.0472
18289THY    HA344537   1.394   1.187   7.037 -0.0078 -1.6283 -2.0915
18289THY    CA444538   1.303   1.376   7.005  0.3131 -0.3402 -0.0025
18289THY    HA444539   1.334   1.412   7.102 -1.4017  0.2696 -0.0933
18289THY    CA544540   1.233   1.457   6.911  0.0242 -0.3986  0.3798
18289THY    CM144541   1.197   1.595   6.954  0.0830  0.8111 -0.1462
18289THY    HM144542   1.186   1.603   7.063  1.8160  1.0334 -0.4032
18289THY    HM244543   1.117   1.638   6.893  1.4220 -0.3841  0.7280
18289THY    HM344544   1.283   1.656   6.925  0.3883  0.7367 -0.6104
18289THY    CA644545   1.192   1.405   6.786 -0.6391  0.5349 -0.1055
18289THY    HA644546   1.139   1.467   6.714 -0.7371 -0.0602 -0.8686
18290THY      O44547   8.705   4.103   2.273 -0.0640 -1.0256  0.0571
18290THY     HO44548   8.736   4.028   2.326 -1.3315 -0.9904 -0.4671
18290THY    CA144549   8.613   4.169   2.341  0.2350 -0.2766 -0.2950
18290THY    CA244550   8.600   4.308   2.327  0.2757 -0.7594 -0.1653
18290THY    CP144551   8.662   4.398   2.211 -0.0949 -0.3531  0.0793
18290THY    HP144552   8.726   4.336   2.147  0.7082  1.4187 -0.9940
18290THY    CP244553   8.765   4.498   2.273  0.5156  0.3779 -0.7325
18290THY    HP244554   8.716   4.589   2.310  1.2115 -0.8627  0.1700
18290THY    HP344555   8.829   4.535   2.193 -2.4755 -2.0282 -0.3716
18290THY    HP444556   8.818   4.438   2.348 -0.3721  1.2795 -0.4377
18290THY    CP344557   8.551   4.473   2.134 -0.0675  0.0805  0.2597
18290THY    HP544558   8.471   4.403   2.105  0.3613 -1.3046  0.3248
18290THY    HP644559   8.602   4.516   2.047 -0.3951 -0.8964 -1.2211
18290THY    HP744560   8.497   4.547   2.194 -1.4375 -0.5938 -0.1541
18290THY    CA344561   8.521   4.370   2.428  0.4982 -0.6416 -0.3673
18290THY    HA344562   8.506   4.476   2.443  0.7622  0.5627 -0.4903
18290THY    CA444563   8.445   4.288   2.523  0.3818  1.1997 -0.8983
18290THY    HA444564   8.373   4.348   2.578  0.6072 -0.0794  0.6268
18290THY    CA544565   8.450   4.151   2.518  0.7035 -0.2344 -0.0862
18290THY    CM144566   8.373   4.061   2.607 -0.2358 -0.4331  0.0855
18290THY    HM144567   8.360   3.971   2.546  0.6009 -2.0991  1.0440
18290THY    HM244568   8.279   4.104   2.642  0.5350  1.5859  0.2457
18290THY    HM344569   8.422   4.042   2.703 -1.1290 -0.0826 -0.4898
18290THY    CA644570   8.543   4.094   2.436  0.1255  0.3281 -0.5854
18290THY    HA644571   8.553   3.986   2.441 -1.2686  1.6132 -0.6786
18291THY      O44572   6.060   3.787   2.958  0.8831 -0.5125 -0.0384
18291THY     HO44573   6.006   3.810   3.036  2.8537  0.8189  0.4339
18291THY    CA144574   6.118   3.674   3.003 -1.5601 -0.1318 -0.7299
18291THY    CA244575   6.193   3.597   2.915 -0.0068 -0.3686 -0.8034
18291THY    CP144576   6.212   3.634   2.768  0.3539 -0.1958  0.3042
18291THY    HP144577   6.163   3.725   2.732 -0.4019 -0.2993 -0.1357
18291THY    CP244578   6.173   3.510   2.677  0.2218 -0.6308  0.4688
18291THY    HP244579   6.244   3.427   2.674 -1.6134 -0.3266 -1.1822
18291THY    HP344580   6.133   3.531   2.577  0.5928 -0.5556  1.5751
18291THY    HP444581   6.093   3.457   2.730  1.4806 -0.0061 -0.8734
18291THY    CP344582   6.355   3.668   2.742 -0.0505  0.3707 -0.2566
18291THY    HP544583   6.372   3.700   2.638  3.5309  0.8474 -0.1133
18291THY    HP644584   6.407   3.572   2.750 -1.4535 -0.8394 -1.1612
18291THY    HP744585   6.398   3.748   2.803 -0.9065  1.5469 -0.6794
18291THY    CA344586   6.261   3.482   2.963 -0.7246 -0.8180  0.1833
18291THY    HA344587   6.322   3.421   2.898  0.1925 -0.5446  0.7789
18291THY    CA444588   6.254   3.457   3.102 -0.3521 -0.1662 -0.1280
18291THY    HA444589   6.310   3.377   3.149 -0.8899  1.0025  0.1659
18291THY    CA544590   6.177   3.540   3.192 -0.0194  0.6077 -0.0142
18291THY    CM144591   6.177   3.508   3.336  0.1237 -0.3284 -0.3708
18291THY    HM144592   6.119   3.581   3.394 -1.7734 -0.1281 -1.9570
18291THY    HM244593   6.277   3.491   3.376  0.2248 -0.3547  0.1447
18291THY    HM344594   6.117   3.417   3.340 -0.0602  0.0423 -0.2363
18291THY    CA644595   6.113   3.651   3.143 -0.6138 -0.1802  0.0547
18291THY    HA644596   6.061   3.720   3.209  0.3575 -0.7183  1.3419
18292THY      O44597   0.779   4.102   3.120 -0.1061 -0.0620  0.5210
18292THY     HO44598   0.843   4.132   3.185 -0.0675 -0.2555  0.8593
18292THY    CA144599   0.655   4.072   3.166  0.3832 -0.0009 -0.7951
18292THY    CA244600   0.544   4.053   3.077  0.5154  0.1537  0.2597
18292THY    CP144601   0.565   4.073   2.926 -0.3558  0.3445  0.1730
18292THY    HP144602   0.644   4.146   2.903  1.7329  0.5161 -1.9086
18292THY    CP244603   0.433   4.125   2.864  0.1799 -0.2128 -0.4942
18292THY    HP244604   0.452   4.157   2.761  1.8601  0.3558  0.4675
18292THY    HP344605   0.387   4.212   2.913 -1.0646  0.2962 -1.4076
18292THY    HP444606   0.354   4.049   2.858 -0.1655 -0.5471 -0.1090
18292THY    CP344607   0.615   3.940   2.862  0.0929 -0.0089  0.5312
18292THY    HP544608   0.657   3.957   2.761  2.2269  1.0794  2.3280
18292THY    HP644609   0.541   3.860   2.857 -1.1253 -3.3456  1.6994
18292THY    HP744610   0.699   3.901   2.922 -0.4742 -0.6337 -1.8009
18292THY    CA344611   0.422   4.011   3.136 -0.6505 -0.0438  0.0323
18292THY    HA344612   0.341   3.985   3.068 -0.4119 -1.0862  1.8462
18292THY    CA444613   0.411   3.995   3.276  0.4533 -0.2619 -0.0230
18292THY    HA444614   0.317   3.962   3.319  0.3474 -0.9723 -0.6757
18292THY    CA544615   0.518   4.022   3.356 -0.7629 -0.2254 -0.0682
18292THY    CM144616   0.512   4.013   3.514 -0.3083  0.1258 -0.4179
18292THY    HM144617   0.508   4.117   3.548 -1.6962  0.9494 -0.7058
18292THY    HM244618   0.596   3.957   3.558 -0.9688  1.4679 -0.4067
18292THY    HM344619   0.420   3.964   3.547 -1.4561 -0.7210  1.0839
18292THY    CA644620   0.640   4.060   3.301  0.2861 -0.0132  0.5584
18292THY    HA644621   0.729   4.077   3.362 -0.1377  0.7589  0.0534
18293THY      O44622   9.088   2.284   6.477 -0.3771  0.5259 -0.0075
18293THY     HO44623   9.067   2.192   6.454 -3.9197 -2.2159  1.2133
18293THY    CA144624   9.022   2.367   6.392  0.8245 -0.3871  0.2037
18293THY    CA244625   8.994   2.501   6.439  0.3086 -0.1327  0.0499
18293THY    CP144626   9.044   2.543   6.574 -0.0425 -0.1113  0.2755
18293THY    HP144627   9.143   2.504   6.597 -0.5629  1.1253 -0.3781
18293THY    CP244628   8.936   2.488   6.673 -0.2258 -0.7622  0.4257
18293THY    HP244629   8.910   2.383   6.655 -0.7764 -0.0761  0.4392
18293THY    HP344630   8.841   2.542   6.670 -1.3923 -2.3054 -1.5763
18293THY    HP444631   8.983   2.486   6.773 -0.7769 -0.5025 -0.7884
18293THY    CP344632   9.035   2.689   6.601  0.0861 -0.0504 -0.2701
18293THY    HP544633   9.088   2.702   6.696 -1.4219  0.8948 -0.6599
18293THY    HP644634   8.933   2.729   6.613  1.0539 -2.0947  3.1607
18293THY    HP744635   9.079   2.733   6.511 -1.4670 -1.2710 -1.1113
18293THY    CA344636   8.908   2.581   6.363 -0.3419 -0.2154 -1.0597
18293THY    HA344637   8.870   2.677   6.397 -0.5512 -2.5011 -0.2647
18293THY    CA444638   8.877   2.535   6.231  0.1093 -0.5063  0.0493
18293THY    HA444639   8.829   2.605   6.163  2.8651 -2.3503  0.3310
18293THY    CA544640   8.912   2.410   6.184  0.1168 -0.5597 -0.7596
18293THY    CM144641   8.861   2.366   6.054  0.7888  0.2093  0.3980
18293THY    HM144642   8.943   2.339   5.987  0.0456 -1.0747  1.2344
18293THY    HM244643   8.801   2.442   6.004 -0.3291  2.6831  1.2454
18293THY    HM344644   8.799   2.277   6.064  3.1953 -0.8415 -1.5267
18293THY    CA644645   8.973   2.317   6.272 -0.0911  0.4716  0.3850
18293THY    HA644646   8.987   2.218   6.230  1.5428 -0.3156  0.9150
18294THY      O44647   6.889   2.732   3.927 -0.1063  0.3082 -0.0800
18294THY     HO44648   6.946   2.739   3.849  1.9773  1.7644 -0.0357
18294THY    CA144649   6.918   2.838   4.010 -0.6467  0.0489 -0.3185
18294THY    CA244650   6.833   2.867   4.116  0.1760  0.7947  0.7093
18294THY    CP144651   6.717   2.777   4.157  0.1096  0.1676 -0.6335
18294THY    HP144652   6.721   2.686   4.096  0.3783  1.2775 -1.3813
18294THY    CP244653   6.588   2.846   4.115  0.6553 -0.0676  0.3530
18294THY    HP244654   6.610   2.917   4.035  1.9076 -0.7774 -0.7691
18294THY    HP344655   6.543   2.899   4.200 -0.7304  0.6885 -1.8527
18294THY    HP444656   6.524   2.764   4.079 -0.7380 -0.0435  1.4027
18294THY    CP344657   6.708   2.733   4.310 -0.8098  0.7578  0.2344
18294THY    HP544658   6.806   2.690   4.332 -0.2573 -0.6503  0.6935
18294THY    HP644659   6.627   2.659   4.317 -1.1446 -1.5445  0.2947
18294THY    HP744660   6.690   2.823   4.371 -0.3286 -0.8990  1.5196
18294THY    CA344661   6.867   2.978   4.199  0.6222 -0.0987  0.5560
18294THY    HA344662   6.795   3.006   4.276 -0.9908 -0.8133 -1.3509
18294THY    CA444663   6.982   3.053   4.172 -0.9286  0.3435  0.0966
18294THY    HA444664   7.018   3.137   4.230  2.9495 -1.1946 -0.3231
18294THY    CA544665   7.062   3.018   4.060 -0.3159 -0.2689  0.2072
18294THY    CM144666   7.186   3.091   4.025  0.8736 -0.5771  0.0609
18294THY    HM144667   7.195   3.092   3.916 -1.2845 -0.7797  0.6617
18294THY    HM244668   7.273   3.042   4.071  0.1218 -1.4494 -2.2273
18294THY    HM344669   7.176   3.193   4.063  1.1457  1.8704 -0.7512
18294THY    CA644670   7.033   2.910   3.977  0.5169 -0.2308 -1.1539
18294THY    HA644671   7.103   2.882   3.900  0.5011 -0.4038 -0.7288
18295THY      O44672   5.977   1.816   6.733 -0.2004  0.7609 -0.0658
18295THY     HO44673   6.049   1.854   6.679 -0.1627  1.5582  1.0648
18295THY    CA144674   5.860   1.867   6.694  0.6764  0.1110 -0.0700
18295THY    CA244675   5.742   1.859   6.778 -0.3586  0.5521  0.1923
18295THY    CP144676   5.747   1.813   6.927  0.3644  1.3524 -0.4179
18295THY    HP144677   5.853   1.785   6.934  1.0678 -1.9888  0.9717
18295THY    CP244678   5.657   1.685   6.948 -0.1463  0.2367 -0.4219
18295THY    HP244679   5.663   1.653   7.053 -2.2452  0.8538  1.0086
18295THY    HP344680   5.682   1.602   6.881 -2.1152 -1.4734  0.2629
18295THY    HP444681   5.556   1.715   6.917  0.0618 -0.9829 -0.9286
18295THY    CP344682   5.718   1.921   7.029 -1.1631  0.4855  0.4953
18295THY    HP544683   5.757   1.886   7.125  0.3471 -0.5735 -0.9086
18295THY    HP644684   5.611   1.920   7.049 -1.0550  1.0880  0.9197
18295THY    HP744685   5.743   2.021   6.992 -2.9860  2.4596  1.7515
18295THY    CA344686   5.623   1.921   6.728  0.0797  0.8508  0.9477
18295THY    HA344687   5.533   1.932   6.787 -0.4150  0.1709  0.6524
18295THY    CA444688   5.613   1.940   6.588  0.0133 -0.1300  0.3513
18295THY    HA444689   5.520   1.974   6.543  0.8503 -0.7748  1.9055
18295THY    CA544690   5.726   1.931   6.509  0.2951 -1.1526 -0.2290
18295THY    CM144691   5.735   1.959   6.359  0.3156  0.7573 -0.6759
18295THY    HM144692   5.636   1.986   6.320  0.2651  1.6698  0.5297
18295THY    HM244693   5.765   1.866   6.309 -1.1054  0.6763 -1.1138
18295THY    HM344694   5.795   2.046   6.332  0.9296  1.8275 -0.7434
18295THY    CA644695   5.847   1.904   6.565  0.7451 -0.6493  0.3807
18295THY    HA644696   5.930   1.913   6.495  1.3997  0.3897  3.3837
18296THY      O44697   3.735   1.779   7.604  0.1135 -0.0921 -0.1753
18296THY     HO44698   3.746   1.692   7.563 -2.5827 -0.3476 -0.4843
18296THY    CA144699   3.700   1.759   7.732 -0.1697  0.3598  0.5186
18296THY    CA244700   3.731   1.856   7.829 -0.4795  0.1004 -0.9332
18296THY    CP144701   3.805   1.990   7.786 -0.1703  0.0381  0.7344
18296THY    HP144702   3.801   2.004   7.678 -0.4446  0.1559  1.5731
18296THY    CP244703   3.953   1.977   7.831 -0.4834  0.2201  0.3370
18296THY    HP244704   3.996   1.894   7.773 -0.7396 -1.1019  1.0982
18296THY    HP344705   3.967   1.955   7.937  2.8840 -0.3419 -0.7632
18296THY    HP444706   4.009   2.066   7.802  0.1189 -0.0456 -0.1203
18296THY    CP344707   3.738   2.112   7.856  0.1463  0.1620 -0.0196
18296THY    HP544708   3.744   2.117   7.965 -0.2617  0.1549  0.6758
18296THY    HP644709   3.630   2.112   7.839  0.2444 -1.0819 -2.5182
18296THY    HP744710   3.784   2.202   7.814 -1.1481  1.4371  1.2739
18296THY    CA344711   3.686   1.840   7.959 -0.2446  0.4169  0.0927
18296THY    HA344712   3.709   1.915   8.034 -1.2176 -0.3767  1.2344
18296THY    CA444713   3.610   1.725   7.987  0.2523 -0.4631 -0.2175
18296THY    HA444714   3.575   1.711   8.089 -0.3953 -0.6701 -0.1337
18296THY    CA544715   3.571   1.634   7.890 -0.2833 -0.5492 -0.6434
18296THY    CM144716   3.482   1.512   7.918 -0.1978  0.3613  0.6568
18296THY    HM144717   3.399   1.521   7.847  0.0432  0.3025  3.1656
18296THY    HM244718   3.438   1.513   8.018  1.1720  0.9950 -0.1928
18296THY    HM344719   3.535   1.416   7.914 -0.7888 -0.5084  0.3567
18296THY    CA644720   3.625   1.649   7.767 -0.3951 -1.1294  0.0860
18296THY    HA644721   3.602   1.572   7.694 -1.8669  1.1502 -1.7624
18297THY      O44722   3.662   6.937   4.621 -0.1917 -0.0260  0.4473
18297THY     HO44723   3.688   6.935   4.714  1.1748 -0.3546  1.2508
18297THY    CA144724   3.688   7.063   4.581  0.0539  0.0824  0.4186
18297THY    CA244725   3.669   7.098   4.441  0.3612 -0.4009  0.0391
18297THY    CP144726   3.627   6.995   4.336  0.0219  0.4544  0.5587
18297THY    HP144727   3.619   6.896   4.383  0.4543  0.4417  0.5192
18297THY    CP244728   3.735   6.985   4.224  0.0052  0.4124 -0.7508
18297THY    HP244729   3.837   6.970   4.260  0.4398 -1.2986 -2.2557
18297THY    HP344730   3.740   7.073   4.159 -0.6303  1.0321 -0.2452
18297THY    HP444731   3.718   6.901   4.155  2.3915  1.9909 -2.6877
18297THY    CP344732   3.494   7.025   4.258  0.0661  0.5511  0.4848
18297THY    HP544733   3.401   7.028   4.316 -0.2751  0.0107  2.7681
18297THY    HP644734   3.474   6.951   4.180 -0.1086  1.2882 -0.2485
18297THY    HP744735   3.506   7.121   4.206 -2.1522  1.8326  1.5565
18297THY    CA344736   3.686   7.236   4.412 -0.0742  0.3235 -0.2007
18297THY    HA344737   3.672   7.280   4.313 -0.0682  0.4432  0.0704
18297THY    CA444738   3.724   7.322   4.514  0.5534 -0.4939 -0.2573
18297THY    HA444739   3.726   7.428   4.492 -0.0694 -1.5941 -0.4567
18297THY    CA544740   3.758   7.278   4.645 -0.1339  0.4980 -0.1938
18297THY    CM144741   3.809   7.374   4.743 -0.3465  0.1830 -0.0107
18297THY    HM144742   3.879   7.451   4.710  0.2675 -0.1129 -0.6817
18297THY    HM244743   3.841   7.330   4.838 -1.3236  0.8923  0.7612
18297THY    HM344744   3.725   7.437   4.772  0.3496  2.1062  0.0826
18297THY    CA644745   3.734   7.153   4.679  0.5256 -0.0796 -0.1980
18297THY    HA644746   3.763   7.119   4.778  1.6556 -0.5878 -0.7746
18298THY      O44747   8.875   1.492   3.002  0.0636  0.0262  0.1522
18298THY     HO44748   8.885   1.396   2.995 -1.5595  0.0546 -0.0452
18298THY    CA144749   8.899   1.516   3.132  0.1966  0.1437 -0.0663
18298THY    CA244750   8.862   1.636   3.192 -0.2391 -0.0301 -0.3461
18298THY    CP144751   8.780   1.745   3.120 -0.3174  0.2223 -0.0650
18298THY    HP144752   8.809   1.724   3.016  1.1742  0.1788  1.8961
18298THY    CP244753   8.821   1.892   3.144 -0.3482  0.6570  0.1606
18298THY    HP244754   8.805   1.916   3.250 -2.9227  0.0301  1.6418
18298THY    HP344755   8.752   1.954   3.086  1.4433 -0.6350  1.0257
18298THY    HP444756   8.918   1.918   3.099  0.0371  0.7091 -1.1160
18298THY    CP344757   8.629   1.734   3.136  0.2451  0.3683 -0.7571
18298THY    HP544758   8.606   1.727   3.243 -0.8265  0.5583  3.2235
18298THY    HP644759   8.594   1.643   3.086 -3.7978  1.8059 -0.2191
18298THY    HP744760   8.574   1.820   3.095  1.9547 -0.5806 -0.0692
18298THY    CA344761   8.892   1.655   3.333 -0.0997 -0.1350  0.3903
18298THY    HA344762   8.848   1.744   3.379  2.8005 -2.7207  3.4274
18298THY    CA444763   8.972   1.556   3.400 -0.6837  0.0961  0.2231
18298THY    HA444764   8.996   1.566   3.506 -1.2207  0.3059 -0.5223
18298THY    CA544765   9.005   1.441   3.339  0.0515  0.0447  0.0912
18298THY    CM144766   9.060   1.318   3.407 -0.8432 -0.6397 -0.5620
18298THY    HM144767   8.988   1.236   3.397 -1.0943 -1.3187 -0.2681
18298THY    HM244768   9.075   1.319   3.516  0.8401 -0.7313  3.7248
18298THY    HM344769   9.161   1.306   3.366  0.9921  2.5996  2.0795
18298THY    CA644770   8.969   1.418   3.204  0.1849 -1.1926  0.0302
18298THY    HA644771   9.006   1.328   3.157 -0.4660 -1.1057 -0.2824
18299THY      O44772   5.458   5.146   7.151  0.1598 -0.5714 -0.6183
18299THY     HO44773   5.472   5.175   7.243 -2.9605 -0.2034  0.0510
18299THY    CA144774   5.566   5.084   7.093  0.5358 -0.2365  0.7708
18299THY    CA244775   5.574   5.062   6.953  0.0991  0.6322  0.1388
18299THY    CP144776   5.459   5.092   6.857 -0.4791  0.5584 -0.3534
18299THY    HP144777   5.376   5.142   6.908 -1.5566 -2.2454  0.9272
18299THY    CP244778   5.403   4.970   6.787 -0.0774  0.6752 -0.4077
18299THY    HP244779   5.360   4.897   6.857 -1.3390  1.5914  1.1405
18299THY    HP344780   5.485   4.924   6.730  1.7347  0.6119  2.6470
18299THY    HP444781   5.323   4.994   6.716 -0.1250  0.8149 -0.1455
18299THY    CP344782   5.502   5.199   6.747 -0.1408  0.3887 -0.1920
18299THY    HP544783   5.583   5.157   6.687 -0.3270 -0.7410  0.9979
18299THY    HP644784   5.539   5.288   6.799  1.4397 -0.6852 -0.1912
18299THY    HP744785   5.426   5.231   6.675 -0.3268  1.1291  1.1113
18299THY    CA344786   5.691   4.995   6.911  0.9677  1.5835 -0.3020
18299THY    HA344787   5.700   4.974   6.805  0.3541  1.5834 -0.6076
18299THY    CA444788   5.790   4.947   6.998 -0.0207  0.3792 -0.0545
18299THY    HA444789   5.881   4.897   6.966 -0.9295  2.0568 -3.0604
18299THY    CA544790   5.771   4.975   7.132  0.0659  0.8201  0.5306
18299THY    CM144791   5.880   4.939   7.229 -0.4910  0.2472  0.3138
18299THY    HM144792   5.858   4.844   7.279 -2.8592 -0.5509  0.3706
18299THY    HM244793   5.894   5.021   7.301 -1.2494 -1.1525  1.7245
18299THY    HM344794   5.970   4.924   7.170 -0.6465  0.1446 -0.2423
18299THY    CA644795   5.653   5.034   7.182 -0.4253 -0.3821 -0.1909
18299THY    HA644796   5.638   5.042   7.290 -1.2748 -0.3357 -1.9729
18300THY      O44797   8.857   5.218   4.901 -0.2327 -0.7755 -0.9063
18300THY     HO44798   8.835   5.245   4.991  0.8250 -0.8333  0.1940
18300THY    CA144799   8.741   5.175   4.849  0.1177 -0.1787 -0.5030
18300THY    CA244800   8.719   5.154   4.713  0.6031 -0.4800  0.0700
18300THY    CP144801   8.829   5.169   4.608 -0.4967  0.7586 -0.2684
18300THY    HP144802   8.912   5.219   4.658  0.2121  0.3032 -0.9648
18300THY    CP244803   8.782   5.261   4.489  0.5511  0.1557 -0.3673
18300THY    HP244804   8.864   5.293   4.425  0.3653  0.8444  1.6104
18300THY    HP344805   8.727   5.348   4.526 -1.0662  0.9002 -1.6400
18300THY    HP444806   8.708   5.217   4.421  1.4133 -2.6117  2.1280
18300THY    CP344807   8.874   5.038   4.553 -0.3154  0.1166 -0.8696
18300THY    HP544808   8.955   5.066   4.484 -1.3642 -0.5148  0.7660
18300THY    HP644809   8.792   4.989   4.499 -1.9092  1.0557  0.6471
18300THY    HP744810   8.911   4.969   4.630  0.7891 -0.9665 -1.5388
18300THY    CA344811   8.590   5.102   4.674  0.0365 -0.4436  0.7066
18300THY    HA344812   8.572   5.079   4.569  2.0213 -1.2608  2.4696
18300THY    CA444813   8.494   5.081   4.777  0.3399  0.0359  0.1326
18300THY    HA444814   8.396   5.043   4.750 -0.0763  1.2482  0.2976
18300THY    CA544815   8.520   5.100   4.910 -0.3655 -0.4994 -0.1517
18300THY    CM144816   8.436   5.053   5.021 -0.3605  0.1160 -0.5726
18300THY    HM144817   8.386   5.136   5.073  2.9466  2.6871  0.0347
18300THY    HM244818   8.499   4.999   5.093  1.7684 -3.3474 -3.0741
18300THY    HM344819   8.356   4.988   4.982 -2.8633 -0.1656  2.4177
18300THY    CA644820   8.647   5.147   4.945  0.7659 -0.2981  0.2022
18300THY    HA644821   8.679   5.140   5.049  0.1254 -0.1631 -0.9116
18301THY      O44822   8.353   3.349   4.755 -0.7452  0.3249  0.2702
18301THY     HO44823   8.388   3.364   4.844 -0.6060  0.1309  1.1872
18301THY    CA144824   8.276   3.461   4.728  0.1851  0.1075 -0.9020
18301THY    CA244825   8.257   3.516   4.598 -0.1671 -0.1970 -0.3076
18301THY    CP144826   8.316   3.447   4.481 -0.1409  0.9715 -0.2426
18301THY    HP144827   8.383   3.378   4.533  2.0385  1.0795  1.8171
18301THY    CP244828   8.395   3.530   4.387  0.2065  0.1180 -0.4558
18301THY    HP244829   8.341   3.609   4.332  1.7947  0.5592  1.0073
18301THY    HP344830   8.444   3.464   4.314  0.1140  0.2884 -0.7115
18301THY    HP444831   8.467   3.592   4.442 -0.3708 -0.1336  0.4614
18301THY    CP344832   8.221   3.357   4.394 -0.6643 -0.5251 -0.3181
18301THY    HP544833   8.263   3.304   4.308 -1.4114 -1.6141  0.8088
18301THY    HP644834   8.137   3.418   4.357  1.1169 -1.5730  1.6445
18301THY    HP744835   8.189   3.283   4.468  0.1482  0.2645  0.1031
18301THY    CA344836   8.192   3.643   4.581 -0.7577 -0.8935 -0.4719
18301THY    HA344837   8.173   3.693   4.487  0.9144 -0.5347  0.9510
18301THY    CA444838   8.147   3.706   4.701  0.4291 -0.0009  0.1600
18301THY    HA444839   8.101   3.804   4.696  0.5856 -1.3066  0.1857
18301THY    CA544840   8.172   3.649   4.827 -0.0486 -0.3841  0.5106
18301THY    CM144841   8.125   3.721   4.941  0.8131  0.0959 -0.0690
18301THY    HM144842   8.212   3.737   5.006  1.8717 -1.5109  1.0759
18301THY    HM244843   8.047   3.671   5.000  0.7870 -0.7631 -1.0717
18301THY    HM344844   8.086   3.821   4.919 -2.8158  1.8040 -0.9402
18301THY    CA644845   8.234   3.530   4.842  0.3970  0.1951  0.3193
18301THY    HA644846   8.257   3.493   4.941  1.6665 -0.0062  0.5207
18302THY      O44847   4.069   1.149   3.461  0.7885  0.1890 -0.2898
18302THY     HO44848   4.129   1.191   3.524  0.0076 -0.0071  1.1844
18302THY    CA144849   4.066   1.223   3.350  0.3950 -0.1021  0.1088
18302THY    CA244850   3.976   1.196   3.245  0.0876 -0.1727  0.2243
18302THY    CP144851   3.883   1.083   3.257  0.0176  0.4543 -0.5344
18302THY    HP144852   3.872   1.043   3.359 -0.5371  1.5670  2.2557
18302THY    CP244853   3.942   0.968   3.172 -0.1955 -0.5501  0.0095
18302THY    HP244854   3.878   0.879   3.179 -0.9534  0.5935  0.6278
18302THY    HP344855   4.036   0.935   3.218  0.1265 -1.6752 -0.6791
18302THY    HP444856   3.953   0.999   3.067  1.6402 -0.6372 -0.7887
18302THY    CP344857   3.745   1.128   3.207 -0.0258 -0.4371  0.0274
18302THY    HP544858   3.746   1.146   3.099  1.8732 -0.1961  1.7511
18302THY    HP644859   3.712   1.217   3.262  1.7107 -1.6672  1.5180
18302THY    HP744860   3.669   1.049   3.214  1.2442 -0.0426 -1.1918
18302THY    CA344861   3.988   1.277   3.132 -0.4822 -0.5895  0.8258
18302THY    HA344862   3.924   1.258   3.047 -0.4266 -0.2904 -0.8872
18302THY    CA444863   4.063   1.397   3.130  0.2006  0.5489 -0.6123
18302THY    HA444864   4.056   1.474   3.054  0.3461 -0.2492 -1.3683
18302THY    CA544865   4.145   1.425   3.241  0.6307 -0.2639  0.2867
18302THY    CM144866   4.207   1.556   3.256  0.6149  0.2061 -0.3012
18302THY    HM144867   4.201   1.586   3.362  1.3573  0.7508 -1.9463
18302THY    HM244868   4.143   1.626   3.201  0.4391 -0.4187 -0.9520
18302THY    HM344869   4.309   1.557   3.215  0.0094 -1.3601  1.1590
18302THY    CA644870   4.140   1.338   3.351  0.0353  0.2327  0.7134
18302THY    HA644871   4.184   1.368   3.445  0.1770 -0.0826  1.5190
18303THY      O44872   8.140   5.903   7.326 -0.1658 -0.3511  0.3882
18303THY     HO44873   8.073   5.925   7.393  0.3548 -1.0616  5.0191
18303THY    CA144874   8.075   5.921   7.207  1.0829 -0.5837 -0.5001
18303THY    CA244875   8.026   5.810   7.136  0.5251  1.1528 -0.2276
18303THY    CP144876   8.074   5.669   7.161  0.7684  0.4006 -0.5863
18303THY    HP144877   8.123   5.667   7.259  1.5652  0.0760  1.1484
18303THY    CP244878   8.193   5.641   7.073  0.7523  0.0180 -0.0789
18303THY    HP244879   8.161   5.663   6.970 -2.3076  0.2893 -2.6042
18303THY    HP344880   8.225   5.537   7.088  0.4026 -0.2233 -0.2224
18303THY    HP444881   8.284   5.693   7.106  1.8612 -1.1003 -1.2308
18303THY    CP344882   7.956   5.569   7.153  0.2860 -0.2466 -0.0367
18303THY    HP544883   7.864   5.605   7.201  1.0335 -0.6957  2.7816
18303THY    HP644884   7.982   5.479   7.209 -0.8727 -0.3193 -0.4301
18303THY    HP744885   7.944   5.547   7.047  1.8171 -0.0110 -2.2640
18303THY    CA344886   7.948   5.837   7.020  0.2525  0.8299  0.1371
18303THY    HA344887   7.909   5.755   6.960 -3.3601 -2.0648  3.6013
18303THY    CA444888   7.912   5.967   6.986 -0.7809  0.4307 -0.5535
18303THY    HA444889   7.846   5.983   6.901  0.7325 -0.6879 -0.0071
18303THY    CA544890   7.950   6.074   7.059 -0.0780 -0.0213  0.9298
18303THY    CM144891   7.905   6.202   7.018  0.1037 -0.2856 -0.3176
18303THY    HM144892   7.982   6.256   6.961 -0.1853  1.2596  1.8667
18303THY    HM244893   7.861   6.252   7.105  0.4644  0.3447 -1.0728
18303THY    HM344894   7.822   6.189   6.947  1.3135 -1.3900 -2.3693
18303THY    CA644895   8.030   6.054   7.174 -0.4907 -0.2135  0.5048
18303THY    HA644896   8.059   6.136   7.240  0.4502 -0.7518  0.6219
18304THY      O44897   7.574   5.001   3.951 -0.1413 -0.0719  0.1100
18304THY     HO44898   7.503   5.027   3.890  0.5218 -0.5747  0.7882
18304THY    CA144899   7.525   4.887   3.999  0.4664  0.1452  0.7440
18304THY    CA244900   7.605   4.805   4.077 -0.0184  0.8033 -0.4237
18304THY    CP144901   7.747   4.848   4.120 -0.2465 -0.0193  0.3671
18304THY    HP144902   7.775   4.944   4.075 -0.1355  0.0019  0.3448
18304THY    CP244903   7.859   4.746   4.065 -0.0314  0.2771 -0.0222
18304THY    HP244904   7.843   4.645   4.102 -2.3262 -0.0093  0.1900
18304THY    HP344905   7.957   4.781   4.099 -0.1359  0.6768 -0.1206
18304THY    HP444906   7.853   4.755   3.956 -2.3601  0.3768  0.2681
18304THY    CP344907   7.761   4.865   4.270 -0.4432  0.9052 -0.3862
18304THY    HP544908   7.862   4.847   4.308  0.7868 -1.8797  0.1875
18304THY    HP644909   7.684   4.808   4.324 -2.3875 -0.7665  0.5186
18304THY    HP744910   7.735   4.971   4.283  0.8122 -1.0710  0.2062
18304THY    CA344911   7.554   4.683   4.129  0.2511  0.5620  0.0821
18304THY    HA344912   7.615   4.624   4.197  0.0842  2.0296  1.5081
18304THY    CA444913   7.426   4.643   4.081 -0.4860 -0.1941  0.5956
18304THY    HA444914   7.395   4.543   4.109  1.1999 -0.2426  0.0315
18304THY    CA544915   7.349   4.727   4.003 -0.3682  0.1593 -0.3340
18304THY    CM144916   7.221   4.694   3.951 -0.5595  0.0084 -0.0994
18304THY    HM144917   7.144   4.690   4.029  0.3635  0.9456 -0.0010
18304THY    HM244918   7.240   4.605   3.889  1.0397 -1.1342  0.9683
18304THY    HM344919   7.169   4.764   3.885 -0.1477 -1.9853 -1.5470
18304THY    CA644920   7.391   4.852   3.964 -0.4083  0.0047 -0.2719
18304THY    HA644921   7.326   4.914   3.902 -2.5802 -0.1214 -2.5297
18305THY      O44922   4.216   4.209   5.396  0.4570 -0.0918  0.4782
18305THY     HO44923   4.185   4.293   5.434  1.1609  2.6216 -0.3824
18305THY    CA144924   4.348   4.210   5.426 -0.1030 -0.1617  0.2077
18305THY    CA244925   4.443   4.145   5.341  0.2893  0.4750 -0.1211
18305THY    CP144926   4.396   4.068   5.212 -0.2212 -0.0978 -0.3314
18305THY    HP144927   4.290   4.088   5.197 -0.5183  1.7529 -0.3492
18305THY    CP244928   4.415   3.917   5.234  0.4411 -0.4957  0.6050
18305THY    HP244929   4.521   3.894   5.248  0.7793  0.4109  2.5355
18305THY    HP344930   4.383   3.860   5.146 -2.3484  0.8927 -0.1418
18305THY    HP444931   4.353   3.880   5.316 -1.9074 -1.2195  2.6274
18305THY    CP344932   4.483   4.117   5.088 -0.1501  0.1576 -0.3778
18305THY    HP544933   4.577   4.062   5.086  0.0406  0.9254 -0.0860
18305THY    HP644934   4.506   4.223   5.099 -2.4543  0.4069  0.1483
18305THY    HP744935   4.426   4.092   4.997  0.3896 -0.1337 -0.5513
18305THY    CA344936   4.582   4.163   5.373 -0.3925  0.9055  0.1384
18305THY    HA344937   4.666   4.128   5.313  0.5406  1.3635  1.5127
18305THY    CA444938   4.617   4.239   5.482 -0.0298 -0.7020 -0.0992
18305THY    HA444939   4.719   4.228   5.516 -0.0252 -0.7871 -0.3321
18305THY    CA544940   4.521   4.294   5.566 -0.6260  0.4590  0.7790
18305THY    CM144941   4.569   4.394   5.671 -0.0517  0.3438  0.2000
18305THY    HM144942   4.501   4.473   5.703  0.5014 -0.1600  0.9008
18305THY    HM244943   4.653   4.455   5.635  0.0675  3.0997  1.8189
18305THY    HM344944   4.600   4.338   5.760 -1.2017  0.4454 -0.3028
18305THY    CA644945   4.388   4.275   5.541  0.0932 -0.5371  0.1316
18305THY    HA644946   4.323   4.323   5.613  0.7182  0.0687  0.0874
18306THY      O44947   8.715   4.035   3.438  1.1571 -0.5543  0.6236
18306THY     HO44948   8.795   4.081   3.470  0.1453  2.0552  0.7816
18306THY    CA144949   8.696   4.057   3.306 -0.1041 -0.3749 -0.6775
18306THY    CA244950   8.598   3.993   3.224  0.0252  0.3227 -0.7019
18306THY    CP144951   8.504   3.910   3.285  0.5860 -0.3294  0.2559
18306THY    HP144952   8.504   3.939   3.391  1.9850  0.0956 -1.0832
18306THY    CP244953   8.555   3.763   3.292 -0.2128  0.2110 -0.0486
18306THY    HP244954   8.652   3.759   3.342 -0.4878  0.7602  0.0049
18306THY    HP344955   8.562   3.719   3.192  0.0975  0.6690 -1.0693
18306THY    HP444956   8.476   3.703   3.339 -3.0564 -2.5885  1.2025
18306THY    CP344957   8.350   3.929   3.242 -0.1138 -0.1394 -0.3756
18306THY    HP544958   8.289   3.871   3.313  2.8352  2.4813 -0.5268
18306THY    HP644959   8.337   3.892   3.140 -0.3331  0.1466 -1.0920
18306THY    HP744960   8.321   4.035   3.253 -0.6166 -2.0134 -0.2880
18306THY    CA344961   8.587   4.035   3.090  0.4503 -0.2605  0.3277
18306THY    HA344962   8.512   3.991   3.025  0.4564  1.3933 -2.3426
18306THY    CA444963   8.683   4.123   3.030  0.6626 -0.1075 -0.3945
18306THY    HA444964   8.673   4.155   2.926 -0.6920 -0.0710 -0.6228
18306THY    CA544965   8.779   4.183   3.116 -0.1119  0.7166 -0.2304
18306THY    CM144966   8.891   4.262   3.051  0.7706 -0.5111  0.4058
18306THY    HM144967   8.945   4.312   3.133 -2.1394 -0.0235  3.0656
18306THY    HM244968   8.853   4.350   2.998  0.8266 -1.4816 -0.1469
18306THY    HM344969   8.952   4.194   2.990 -0.9608  1.7785 -3.5244
18306THY    CA644970   8.783   4.149   3.254 -0.3891 -0.4510  0.8393
18306THY    HA644971   8.864   4.193   3.312  0.8913 -1.4060 -0.1554
18307THY      O44972   4.707   0.996   6.109  0.1797  0.6272 -0.4120
18307THY     HO44973   4.766   0.921   6.125  2.2029 -1.9536  0.4659
18307THY    CA144974   4.631   0.966   5.999 -0.1113  0.0209  0.1810
18307THY    CA244975   4.607   1.059   5.892 -0.2832  0.0344  0.3238
18307THY    CP144976   4.684   1.191   5.881  1.0953  0.3512 -0.2795
18307THY    HP144977   4.765   1.197   5.954  0.1705  1.2713  2.2008
18307THY    CP244978   4.590   1.317   5.911  0.5954  0.5216 -0.1763
18307THY    HP244979   4.527   1.356   5.830  1.8458 -0.2489  0.3124
18307THY    HP344980   4.664   1.398   5.914  2.1629 -1.5870 -1.3941
18307THY    HP444981   4.532   1.312   6.004  0.3060  0.3684  0.3304
18307THY    CP344982   4.733   1.210   5.748 -0.3742  0.3025  0.2393
18307THY    HP544983   4.660   1.237   5.671 -0.3689  0.4678  0.7419
18307THY    HP644984   4.807   1.135   5.721  0.8690  1.7620  0.8712
18307THY    HP744985   4.810   1.286   5.766  0.4472  1.3530 -0.7953
18307THY    CA344986   4.504   1.032   5.799  0.6836 -0.2618  0.7359
18307THY    HA344987   4.497   1.096   5.713  3.6796 -0.0807  1.4665
18307THY    CA444988   4.437   0.913   5.808  0.1097  0.2952  0.2281
18307THY    HA444989   4.378   0.875   5.725  0.0411  0.3835  0.1433
18307THY    CA544990   4.484   0.815   5.896 -0.1493  0.9066  0.3515
18307THY    CM144991   4.411   0.677   5.894 -0.0089  0.4326 -0.2484
18307THY    HM144992   4.330   0.681   5.820  1.2108 -0.9185  2.4777
18307THY    HM244993   4.373   0.665   5.996  1.1646  1.0133  0.7825
18307THY    HM344994   4.480   0.595   5.871 -0.4545 -1.2924 -0.1798
18307THY    CA644995   4.570   0.846   5.998 -0.3108  0.3159  0.3906
18307THY    HA644996   4.587   0.777   6.081  1.5655  2.4107  3.1436
18308THY      O44997   4.975   1.931   4.978  0.4044 -0.2220 -0.1612
18308THY     HO44998   4.931   2.016   4.963 -1.2447 -0.1381 -0.9570
18308THY    CA144999   4.922   1.832   4.903 -0.5100  0.3807 -0.1643
18308THY    CA245000   4.957   1.693   4.922  0.1930 -0.2023 -0.1866
18308THY    CP145001   5.047   1.649   5.029 -0.2957  0.9203  0.0620
18308THY    HP145002   5.114   1.729   5.063  1.3979 -1.2364 -0.3375
18308THY    CP245003   5.140   1.534   4.986  0.0329  0.4947 -0.2214
18308THY    HP245004   5.192   1.553   4.892 -1.3002 -0.3496 -0.6122
18308THY    HP345005   5.082   1.441   4.976  1.6885 -2.1978 -1.0775
18308THY    HP445006   5.220   1.511   5.057  1.6456 -1.3168 -0.4149
18308THY    CP345007   4.975   1.601   5.153  0.2736 -0.0492  0.6409
18308THY    HP545008   4.912   1.514   5.131  1.6828  2.3499 -1.0974
18308THY    HP645009   4.913   1.680   5.198 -0.7050  0.4054 -0.3666
18308THY    HP745010   5.043   1.578   5.235 -1.9927  1.9801  0.7892
18308THY    CA345011   4.889   1.599   4.847  0.8840 -0.2933 -0.2771
18308THY    HA345012   4.905   1.492   4.861 -0.9095 -1.8913 -0.7994
18308THY    CA445013   4.802   1.628   4.743  0.0096 -0.1210 -0.8186
18308THY    HA445014   4.754   1.547   4.689 -1.0713  0.8851 -0.8765
18308THY    CA545015   4.756   1.762   4.734  0.5529  0.3488  0.1961
18308THY    CM145016   4.638   1.795   4.645 -0.4426 -0.2211 -0.4351
18308THY    HM145017   4.558   1.817   4.717 -2.1444 -0.5759 -4.6005
18308THY    HM245018   4.600   1.713   4.583  1.5726 -1.3265 -0.6047
18308THY    HM345019   4.656   1.884   4.584 -5.0334 -0.8198  0.3046
18308THY    CA645020   4.824   1.865   4.810  0.1337 -0.3077 -0.2807
18308THY    HA645021   4.795   1.967   4.788 -0.4057 -0.7103 -0.5184
18309THY      O45022   0.547   5.511   5.072 -0.0553 -0.4648 -0.0041
18309THY     HO45023   0.554   5.598   5.029 -0.7225 -0.7155 -0.0662
18309THY    CA145024   0.666   5.499   5.132  0.8190  0.4220 -0.0284
18309THY    CA245025   0.705   5.378   5.197  0.5032  0.9949 -0.3735
18309THY    CP145026   0.603   5.263   5.210  0.5282  0.8131 -0.1353
18309THY    HP145027   0.513   5.266   5.148 -0.4271  2.0581 -1.8590
18309THY    CP245028   0.551   5.253   5.354  0.1546 -0.1530 -0.2610
18309THY    HP245029   0.640   5.241   5.417 -0.3859  0.5690 -0.5336
18309THY    HP345030   0.485   5.167   5.371  0.5346 -0.3029 -0.5837
18309THY    HP445031   0.505   5.343   5.396  2.4214  0.1035  0.8456
18309THY    CP345032   0.671   5.134   5.167  0.5422  0.0081 -0.4665
18309THY    HP545033   0.610   5.047   5.196  0.9054  0.1249 -0.6880
18309THY    HP645034   0.773   5.122   5.206  0.2889  1.0488  0.5991
18309THY    HP745035   0.671   5.136   5.058 -1.9236 -0.0251  0.5261
18309THY    CA345036   0.824   5.373   5.261  0.6013 -0.7880 -0.1530
18309THY    HA345037   0.842   5.300   5.339  1.0982  2.2102  2.9280
18309THY    CA445038   0.918   5.476   5.251  0.0309  0.0115 -0.7271
18309THY    HA445039   1.014   5.473   5.301  0.3936 -0.5143  0.9116
18309THY    CA545040   0.886   5.596   5.181  0.6128 -0.2133  1.0124
18309THY    CM145041   0.978   5.713   5.164  0.4785 -0.4816  0.0859
18309THY    HM145042   1.006   5.741   5.267 -0.1586  0.9664 -3.8603
18309THY    HM245043   0.935   5.802   5.118  1.0730  0.2967  0.8028
18309THY    HM345044   1.069   5.688   5.108 -0.0719 -0.8298 -1.2535
18309THY    CA645045   0.758   5.604   5.120  0.6042  0.9138 -0.5745
18309THY    HA645046   0.738   5.694   5.062 -1.3255 -0.1446 -1.6312
18310THY      O45047   4.989   4.378   2.481 -0.2937 -0.2221 -0.2673
18310THY     HO45048   5.016   4.446   2.417 -0.5520 -1.5696 -1.3812
18310THY    CA145049   5.029   4.259   2.431 -0.8185 -0.8915  0.0608
18310THY    CA245050   5.074   4.161   2.524 -0.2832  0.2265 -0.1407
18310THY    CP145051   5.086   4.191   2.667  0.0341 -0.4685  0.4533
18310THY    HP145052   5.018   4.272   2.697  0.5100 -0.7183  0.9599
18310THY    CP245053   5.232   4.252   2.692  0.7145  0.3398  1.1543
18310THY    HP245054   5.243   4.273   2.799 -2.7690  1.8702 -3.2411
18310THY    HP345055   5.252   4.335   2.624  0.3509 -0.5809  0.5027
18310THY    HP445056   5.304   4.173   2.669  0.5321  0.5975  0.9110
18310THY    CP345057   5.051   4.072   2.760 -0.1871  0.0424  0.0943
18310THY    HP545058   5.079   4.110   2.858 -1.4706  0.0040  1.2443
18310THY    HP645059   5.114   3.983   2.751 -1.8275  0.0930 -1.1276
18310THY    HP745060   4.947   4.036   2.755 -0.1747 -1.6411  0.1936
18310THY    CA345061   5.118   4.040   2.473 -0.7715 -0.2909  0.1324
18310THY    HA345062   5.158   3.956   2.529 -1.0130 -1.9881 -1.1768
18310THY    CA445063   5.123   4.025   2.325  0.1263  0.0675 -0.6773
18310THY    HA445064   5.167   3.936   2.280 -1.2837 -0.7130 -1.0030
18310THY    CA545065   5.075   4.129   2.247  0.1753 -0.1451  0.7036
18310THY    CM145066   5.083   4.122   2.096 -0.8324 -0.4756 -0.5247
18310THY    HM145067   4.993   4.063   2.070 -0.4437  0.0528 -1.3713
18310THY    HM245068   5.167   4.052   2.085  0.2921  2.5614  0.1982
18310THY    HM345069   5.097   4.217   2.043 -1.5158  2.2019  1.1607
18310THY    CA645070   5.024   4.244   2.303 -0.0373  0.3964 -0.3911
18310THY    HA645071   5.001   4.322   2.231  1.2312 -1.2663 -1.4651
18311THY      O45072   1.846   9.119   6.379  0.2457 -0.2179  0.1070
18311THY     HO45073   1.789   9.065   6.437 -1.3862  0.1156  2.0442
18311THY    CA145074   1.764   9.220   6.336  0.4421 -0.5989 -0.2790
18311THY    CA245075   1.751   9.253   6.202  0.2418  0.5045  0.2321
18311THY    CP145076   1.824   9.177   6.092  0.1249  0.6875  0.2184
18311THY    HP145077   1.915   9.136   6.138  1.1599 -2.0747 -0.7995
18311THY    CP245078   1.884   9.262   5.981  0.0437 -0.4807 -0.2806
18311THY    HP245079   1.935   9.355   6.009 -0.7763 -1.0922  0.3683
18311THY    HP345080   1.796   9.314   5.941 -1.2426  4.4796  1.9355
18311THY    HP445081   1.944   9.202   5.912 -1.2280 -0.3369 -1.7717
18311THY    CP345082   1.741   9.065   6.028 -0.4430 -0.3314 -0.6267
18311THY    HP545083   1.708   9.012   6.118  2.5722  1.1438 -0.1703
18311THY    HP645084   1.798   8.998   5.963  0.4749  0.6139 -0.7793
18311THY    HP745085   1.656   9.100   5.968  1.4353 -2.5414  0.4036
18311THY    CA345086   1.653   9.340   6.162  0.9975  0.2378  0.0242
18311THY    HA345087   1.634   9.356   6.056  0.9559 -0.1532 -2.2926
18311THY    CA445088   1.575   9.406   6.256  0.3024 -0.2517  0.1737
18311THY    HA445089   1.499   9.477   6.224 -0.9781 -0.1689 -1.1156
18311THY    CA545090   1.580   9.378   6.388  0.6723 -0.4924  0.2334
18311THY    CM145091   1.488   9.454   6.487  0.1199 -0.5760 -0.3214
18311THY    HM145092   1.417   9.512   6.427  1.0506 -2.1596 -0.7467
18311THY    HM245093   1.542   9.525   6.550  1.1984 -2.9928  1.1416
18311THY    HM345094   1.442   9.384   6.557  0.5554  0.5119  0.4535
18311THY    CA645095   1.676   9.282   6.430  0.0540 -0.1382  0.0900
18311THY    HA645096   1.678   9.263   6.537  0.2870  0.4359  3.0262
18312THY      O45097   4.455   8.064   2.536 -0.2520 -0.1661 -0.2532
18312THY     HO45098   4.449   7.972   2.568  4.5826 -1.3412 -1.2569
18312THY    CA145099   4.530   8.116   2.632 -0.0285 -0.1164  0.2814
18312THY    CA245100   4.524   8.248   2.675  0.3880  0.2951  0.3893
18312THY    CP145101   4.410   8.334   2.611  0.0556 -0.6341 -0.3853
18312THY    HP145102   4.395   8.296   2.510 -0.7196  0.1818 -2.3909
18312THY    CP245103   4.445   8.473   2.583 -0.3551 -0.0776 -0.7353
18312THY    HP245104   4.362   8.526   2.536 -0.8976 -0.0503 -1.5479
18312THY    HP345105   4.541   8.472   2.529  0.7771  1.8749 -1.5679
18312THY    HP445106   4.463   8.513   2.683 -0.3809  0.1018 -1.1751
18312THY    CP345107   4.292   8.311   2.697 -0.0257 -0.1479 -0.5681
18312THY    HP545108   4.221   8.395   2.696 -2.3382  1.5260 -2.3488
18312THY    HP645109   4.325   8.303   2.801  0.1614 -0.3064 -2.1895
18312THY    HP745110   4.231   8.223   2.672 -1.7520 -0.9773  0.8018
18312THY    CA345111   4.621   8.289   2.766  0.3526  0.4035 -0.0224
18312THY    HA345112   4.607   8.394   2.792 -1.6408  0.8855 -0.3682
18312THY    CA445113   4.715   8.203   2.818 -0.0334  0.3650 -0.8725
18312THY    HA445114   4.794   8.222   2.891 -0.0584  0.6935 -1.9725
18312THY    CA545115   4.716   8.072   2.775  0.2689  0.6913 -0.4178
18312THY    CM145116   4.811   7.974   2.824  0.4062 -0.3200  0.1048
18312THY    HM145117   4.856   8.001   2.920 -1.6437  0.8185 -0.3276
18312THY    HM245118   4.903   7.966   2.765 -0.1908 -0.9732 -3.0188
18312THY    HM345119   4.765   7.875   2.834 -0.4293  1.5256  0.6335
18312THY    CA645120   4.626   8.032   2.680 -0.5574 -0.0612 -0.2308
18312THY    HA645121   4.650   7.932   2.646 -1.8177  1.0749 -0.9435
18313THY      O45122   9.100   9.270   3.812  0.2658 -0.1779  0.3376
18313THY     HO45123   9.101   9.295   3.718  1.0469  0.7601  4.5099
18313THY    CA145124   8.998   9.174   3.821 -0.5218  0.3837  0.4731
18313THY    CA245125   8.961   9.119   3.944  0.7351  1.2912  0.7206
18313THY    CP145126   9.019   9.147   4.084 -0.6103 -0.2484 -0.1446
18313THY    HP145127   9.037   9.255   4.090  1.8631 -1.1764 -0.4385
18313THY    CP245128   9.162   9.082   4.113 -0.8429 -0.4702  0.2532
18313THY    HP245129   9.142   8.976   4.130 -0.7646 -0.4947  0.2342
18313THY    HP345130   9.203   9.118   4.208  0.1584 -0.0389 -1.9173
18313THY    HP445131   9.232   9.087   4.028  1.3891  1.1547 -1.4544
18313THY    CP345132   8.932   9.115   4.200 -0.6908  0.1901 -0.7449
18313THY    HP545133   8.978   9.163   4.286  0.8677  0.0742 -1.9497
18313THY    HP645134   8.931   9.008   4.223  0.0324 -1.7587 -1.2184
18313THY    HP745135   8.831   9.153   4.181 -0.0281  0.1085  1.0444
18313THY    CA345136   8.858   9.023   3.937 -0.0443  0.5143  0.2941
18313THY    HA345137   8.828   8.965   4.024  1.7887  1.8480  1.2179
18313THY    CA445138   8.811   8.975   3.815  0.0344 -0.4088 -0.9100
18313THY    HA445139   8.738   8.895   3.814  1.0778  0.0759 -1.8877
18313THY    CA545140   8.851   9.031   3.696  0.4345  0.3263  0.2174
18313THY    CM145141   8.790   8.990   3.566 -0.1423  0.2042  0.3518
18313THY    HM145142   8.847   8.923   3.501  0.7447 -1.8044  2.8590
18313THY    HM245143   8.804   9.083   3.509 -1.4923  0.4921  0.7547
18313THY    HM345144   8.680   8.988   3.562 -0.1320 -2.5725  1.0478
18313THY    CA645145   8.945   9.136   3.698 -0.0561  0.3101  0.3915
18313THY    HA645146   8.988   9.167   3.603 -1.8672 -0.6911  0.0271
18314THY      O45147   3.111   5.126   3.715 -0.7442  0.3210 -0.0351
18314THY     HO45148   3.022   5.126   3.753 -1.1259 -0.5128  1.0934
18314THY    CA145149   3.149   4.998   3.692 -0.4527 -0.2387 -0.6967
18314THY    CA245150   3.281   4.960   3.680 -0.5018 -0.0997  0.5615
18314THY    CP145151   3.389   5.065   3.679 -0.4684  0.0184  0.2116
18314THY    HP145152   3.351   5.168   3.678 -0.9464 -0.3099  0.0374
18314THY    CP245153   3.483   5.049   3.554 -0.3440 -0.1877 -0.0281
18314THY    HP245154   3.561   5.124   3.571  0.0827  0.4615 -0.6015
18314THY    HP345155   3.422   5.085   3.471  0.8977 -0.4416  1.5584
18314THY    HP445156   3.531   4.952   3.534  1.0688 -1.9659  1.0010
18314THY    CP345157   3.469   5.049   3.808  0.0603  0.0483 -0.0104
18314THY    HP545158   3.517   4.951   3.822 -0.9551  0.0506 -0.5152
18314THY    HP645159   3.407   5.073   3.895 -0.1883  0.3898 -1.7730
18314THY    HP745160   3.545   5.127   3.819  1.0991  4.2308 -1.3765
18314THY    CA345161   3.308   4.822   3.674 -0.1247  0.0453  0.5064
18314THY    HA345162   3.410   4.784   3.680  0.5972  1.0040  2.4264
18314THY    CA445163   3.193   4.737   3.666  0.2564  0.8157  0.7862
18314THY    HA445164   3.201   4.628   3.660 -1.9697 -2.6634  0.6691
18314THY    CA545165   3.066   4.779   3.673  0.0363 -0.4860 -0.0410
18314THY    CM145166   2.946   4.681   3.674  0.4357  0.4326 -0.1108
18314THY    HM145167   2.849   4.726   3.696  0.3303  0.2516 -0.2477
18314THY    HM245168   2.961   4.599   3.745  1.4961 -0.7633 -0.9995
18314THY    HM345169   2.939   4.642   3.572  0.1156 -0.3633  1.9177
18314THY    CA645170   3.044   4.913   3.690 -0.2786  0.0748  0.1559
18314THY    HA645171   2.941   4.946   3.692 -0.2252 -0.9207  0.4031
18315THY      O45172   7.306   6.911   2.665 -0.3327 -0.8626 -0.1552
18315THY     HO45173   7.268   6.934   2.579 -3.3058 -0.7974 -3.8236
18315THY    CA145174   7.211   6.916   2.765  0.3036  0.1884  0.6581
18315THY    CA245175   7.247   6.904   2.900  0.1994  0.4714 -0.1149
18315THY    CP145176   7.393   6.868   2.933  0.2032 -0.4288  0.0270
18315THY    HP145177   7.437   6.801   2.859  0.6254 -0.1946  0.0440
18315THY    CP245178   7.418   6.803   3.078 -0.6934  0.3108 -0.3533
18315THY    HP245179   7.404   6.883   3.152  0.0538  0.5931 -0.4803
18315THY    HP345180   7.522   6.770   3.089  0.5596 -1.8074  2.4919
18315THY    HP445181   7.348   6.725   3.110  1.3560  4.3614 -0.8133
18315THY    CP345182   7.475   7.004   2.935  0.0695 -0.2854  0.1683
18315THY    HP545183   7.464   7.072   2.850 -1.3787  0.8669  1.4634
18315THY    HP645184   7.581   6.986   2.957 -0.3627  1.2571 -0.6267
18315THY    HP745185   7.434   7.062   3.019  1.5051  2.6471 -2.7570
18315THY    CA345186   7.154   6.929   3.003  0.2841  0.6854 -0.3368
18315THY    HA345187   7.179   6.933   3.108 -0.2551  0.7853  0.6124
18315THY    CA445188   7.023   6.961   2.964  0.0478 -0.0980 -1.0691
18315THY    HA445189   6.954   6.982   3.045 -0.6343 -1.3600  2.2234
18315THY    CA545190   6.978   6.961   2.830  0.2982  0.1637  0.1167
18315THY    CM145191   6.838   7.007   2.804 -0.3021 -0.0215  0.3333
18315THY    HM145192   6.792   7.068   2.883 -0.4288  0.6257 -0.5778
18315THY    HM245193   6.763   6.928   2.787  0.4080 -0.8462 -0.1776
18315THY    HM345194   6.847   7.075   2.718 -2.5061  1.6637  2.9499
18315THY    CA645195   7.076   6.940   2.735 -0.6235 -0.0610 -0.5487
18315THY    HA645196   7.046   6.957   2.633 -1.0402  0.2458  0.6508
18316THY      O45197   8.271   4.484   4.897  0.6506  0.1472 -0.4091
18316THY     HO45198   8.235   4.573   4.913 -0.5984 -0.9736 -0.6706
18316THY    CA145199   8.406   4.494   4.904 -0.0557  0.0146 -0.3297
18316THY    CA245200   8.494   4.378   4.894 -0.8506  0.0851 -0.6712
18316THY    CP145201   8.428   4.246   4.864 -0.2580 -0.8322  0.0201
18316THY    HP145202   8.319   4.256   4.866 -0.1999  1.9901  1.3435
18316THY    CP245203   8.455   4.150   4.984 -0.7617  0.2566 -0.2940
18316THY    HP245204   8.560   4.132   5.007 -0.0394 -0.3211  2.7218
18316THY    HP345205   8.412   4.050   4.966 -0.0281  3.1207 -1.2317
18316THY    HP445206   8.408   4.186   5.076  0.6241  0.5874  0.7167
18316THY    CP345207   8.490   4.172   4.736  0.2236  0.0413  0.3274
18316THY    HP545208   8.476   4.235   4.647 -3.0047  0.4682  0.4038
18316THY    HP645209   8.446   4.073   4.722  1.1017 -0.0502 -0.0574
18316THY    HP745210   8.595   4.146   4.751 -0.6432  2.9623 -1.9375
18316THY    CA345211   8.633   4.398   4.906  0.1716  0.5811 -0.4332
18316THY    HA345212   8.693   4.308   4.897  0.9703 -2.0081  0.2799
18316THY    CA445213   8.679   4.527   4.932  0.2386  0.1949  0.0692
18316THY    HA445214   8.784   4.530   4.959  0.0333  1.0778 -0.1409
18316THY    CA545215   8.595   4.638   4.944  0.4235  0.0955 -0.2354
18316THY    CM145216   8.654   4.760   4.991 -1.6101 -0.4287  0.3833
18316THY    HM145217   8.677   4.830   4.910  0.8442  0.2625  0.4895
18316THY    HM245218   8.748   4.739   5.044 -2.6234  0.8137 -1.2461
18316THY    HM345219   8.592   4.811   5.065 -2.0724  0.2385 -1.0930
18316THY    CA645220   8.460   4.617   4.935  1.0380  0.0842  0.1613
18316THY    HA645221   8.388   4.698   4.939 -0.5803  2.0730 -1.2536
18317THY      O45222   6.457   5.931   2.252 -0.3937  0.0229  0.3580
18317THY     HO45223   6.393   5.880   2.305 -1.3411 -1.2708  0.1495
18317THY    CA145224   6.570   5.864   2.252 -0.7271  1.1344 -1.1308
18317THY    CA245225   6.698   5.923   2.270 -0.2534 -0.4926  0.7417
18317THY    CP145226   6.713   6.074   2.284  0.0612 -0.2608 -0.6205
18317THY    HP145227   6.632   6.117   2.224  0.8289 -0.8662  0.0305
18317THY    CP245228   6.824   6.133   2.214 -0.3398  0.5771  0.1488
18317THY    HP245229   6.912   6.113   2.277 -0.7753  0.8463 -0.9638
18317THY    HP345230   6.821   6.243   2.213  2.6472 -0.8904  0.3142
18317THY    HP445231   6.832   6.096   2.111 -0.0432 -0.1521  2.1079
18317THY    CP345232   6.703   6.136   2.424  0.1991  0.4136 -0.5467
18317THY    HP545233   6.714   6.244   2.415  2.5731  1.6850 -0.5997
18317THY    HP645234   6.780   6.093   2.490  0.6300  0.5659  0.4443
18317THY    HP745235   6.607   6.110   2.470  1.2610  2.7203 -0.6880
18317THY    CA345236   6.814   5.835   2.251  0.2866  0.1122  0.5477
18317THY    HA345237   6.917   5.869   2.250 -0.2407 -2.4750  2.3746
18317THY    CA445238   6.791   5.698   2.235 -0.0212  0.0637 -0.2410
18317THY    HA445239   6.875   5.633   2.215  0.5220 -1.0618  0.7646
18317THY    CA545240   6.665   5.644   2.236 -0.3445 -0.2038  0.4574
18317THY    CM145241   6.651   5.497   2.211  0.4409 -0.2467  0.1876
18317THY    HM145242   6.746   5.443   2.217  0.8550 -0.8489  0.8356
18317THY    HM245243   6.617   5.477   2.109  1.3212 -0.5378  0.1230
18317THY    HM345244   6.579   5.449   2.279 -0.3326 -0.4082  1.0925
18317THY    CA645245   6.558   5.728   2.241  0.2649  0.7996  0.5319
18317THY    HA645246   6.467   5.673   2.219  2.2405 -0.5150 -2.4851
18318THY      O45247   1.644   1.102   3.973 -0.2590  0.1050  0.1428
18318THY     HO45248   1.637   1.082   4.068 -3.9037 -0.0343  0.0652
18318THY    CA145249   1.752   1.185   3.955 -0.5120 -0.0741  1.0174
18318THY    CA245250   1.795   1.238   3.831  0.0102 -0.6344  0.7773
18318THY    CP145251   1.699   1.231   3.705 -0.3334  0.0457 -0.0969
18318THY    HP145252   1.605   1.185   3.738 -0.6230  0.2934  0.6547
18318THY    CP245253   1.771   1.147   3.602  0.2785  0.0388 -0.1512
18318THY    HP245254   1.845   1.214   3.558 -0.3503 -0.1343  0.4460
18318THY    HP345255   1.717   1.118   3.511  2.3612 -0.6740 -2.0314
18318THY    HP445256   1.811   1.062   3.658  0.3569 -1.2729 -1.0089
18318THY    CP345257   1.667   1.363   3.636  0.3065 -0.3774  0.2999
18318THY    HP545258   1.636   1.344   3.533  2.6853 -0.6834 -2.5258
18318THY    HP645259   1.753   1.430   3.649  1.9176 -1.0906 -1.5539
18318THY    HP745260   1.578   1.414   3.677 -0.0493  1.1250 -1.4211
18318THY    CA345261   1.921   1.306   3.823 -0.6661 -0.4989  0.1073
18318THY    HA345262   1.958   1.351   3.731  1.6288  1.5994  2.8604
18318THY    CA445263   1.996   1.320   3.947  0.0344 -0.1546  0.1826
18318THY    HA445264   2.089   1.375   3.958  0.0666  1.7274 -0.1815
18318THY    CA545265   1.956   1.251   4.063  0.1756 -0.0504 -0.3070
18318THY    CM145266   2.025   1.250   4.188 -0.3797 -0.1823  0.0441
18318THY    HM145267   2.120   1.306   4.190 -0.6035 -0.0943  0.4252
18318THY    HM245268   2.044   1.151   4.231  1.1224 -0.2369  0.2755
18318THY    HM345269   1.976   1.301   4.272 -0.5283 -0.4885  0.4063
18318THY    CA645270   1.837   1.180   4.063  0.4907 -0.4012 -0.4607
18318THY    HA645271   1.800   1.129   4.151 -2.7418 -1.7511 -0.6970
18319THY      O45272   7.575   0.631   7.124  0.5197  0.1666 -0.4610
18319THY     HO45273   7.577   0.573   7.202  0.0319  0.5421  0.0172
18319THY    CA145274   7.537   0.554   7.015 -1.0420 -0.0079 -0.2783
18319THY    CA245275   7.616   0.554   6.896  0.1582 -0.4032  0.0205
18319THY    CP145276   7.717   0.660   6.865 -0.3050  0.2661 -0.4378
18319THY    HP145277   7.735   0.716   6.958 -4.7971  1.4978 -0.5989
18319THY    CP245278   7.653   0.757   6.770 -0.3514  0.2853  0.2497
18319THY    HP245279   7.557   0.793   6.808 -2.2546 -2.6277 -1.4144
18319THY    HP345280   7.641   0.701   6.677  0.8634  0.7923 -0.9321
18319THY    HP445281   7.715   0.846   6.757 -2.5001  2.3800  2.1930
18319THY    CP345282   7.856   0.615   6.808  0.2943  0.4888  0.6376
18319THY    HP545283   7.932   0.694   6.810 -0.5582  4.0804  1.5776
18319THY    HP645284   7.844   0.570   6.709 -0.2006  0.8726 -0.0912
18319THY    HP745285   7.901   0.529   6.859  2.1176 -0.4910  0.9580
18319THY    CA345286   7.590   0.459   6.795  0.1267  0.1630  0.2497
18319THY    HA345287   7.633   0.461   6.696 -1.8040 -0.7419 -0.9480
18319THY    CA445288   7.499   0.363   6.815 -0.1765 -0.0637 -0.0641
18319THY    HA445289   7.488   0.291   6.735  2.0237 -0.1060 -0.4178
18319THY    CA545290   7.411   0.363   6.929 -0.5144  0.0402  0.6757
18319THY    CM145291   7.300   0.262   6.936  0.3058  0.4446  0.2095
18319THY    HM145292   7.343   0.162   6.918 -1.6117  1.0903 -0.7754
18319THY    HM245293   7.218   0.279   6.865 -1.7341  2.0573 -2.2603
18319THY    HM345294   7.256   0.259   7.036 -2.4846 -0.6725  0.4262
18319THY    CA645295   7.435   0.463   7.028  0.2846 -1.0428 -0.2791
18319THY    HA645296   7.381   0.454   7.122  3.0093  0.5377 -1.4246
18320THY      O45297   3.699   5.100   2.689 -0.2618  0.0624  0.3894
18320THY     HO45298   3.743   5.048   2.619 -1.0311 -0.7628  0.8264
18320THY    CA145299   3.800   5.123   2.782  0.5625  0.2515 -0.6242
18320THY    CA245300   3.813   5.250   2.849 -0.0426 -0.9578  0.4295
18320THY    CP145301   3.703   5.362   2.836  0.5638  0.1691  0.4720
18320THY    HP145302   3.627   5.315   2.771 -0.6713  1.7472  0.1696
18320THY    CP245303   3.757   5.474   2.751  0.3368 -0.1256 -0.7128
18320THY    HP245304   3.689   5.560   2.750  0.8503 -0.3505 -0.2988
18320THY    HP345305   3.768   5.440   2.647 -1.4018  0.1860 -2.3435
18320THY    HP445306   3.854   5.496   2.798  0.4794  1.4016 -4.0182
18320THY    CP345307   3.637   5.397   2.965  0.6058  1.0059 -0.2806
18320THY    HP545308   3.599   5.310   3.019 -0.1743  0.1725 -0.4852
18320THY    HP645309   3.552   5.466   2.961 -0.0561  2.3899 -0.9749
18320THY    HP745310   3.707   5.445   3.033  0.0248  0.3755  1.5310
18320THY    CA345311   3.924   5.269   2.933 -0.3563 -0.3425  0.0956
18320THY    HA345312   3.942   5.368   2.974  1.6310 -2.3314  0.6327
18320THY    CA445313   4.016   5.165   2.941 -0.7166 -0.1648  0.6351
18320THY    HA445314   4.109   5.176   2.997 -0.8027  0.0313  0.3819
18320THY    CA545315   4.006   5.047   2.873 -0.6427 -0.1799 -0.5543
18320THY    CM145316   4.100   4.928   2.896 -0.2156 -0.6553 -0.2142
18320THY    HM145317   4.042   4.837   2.883 -1.9565  1.0842  0.5917
18320THY    HM245318   4.151   4.918   2.992  0.9421 -1.2935 -0.7217
18320THY    HM345319   4.186   4.927   2.827  1.5238  1.3414  1.0881
18320THY    CA645320   3.899   5.028   2.789 -0.0944 -0.3685  0.1436
18320THY    HA645321   3.881   4.930   2.747 -1.4973  1.1454 -0.2816
18321THY      O45322   1.661   6.618   2.401 -0.6622  0.3232  0.9585
18321THY     HO45323   1.719   6.621   2.478  0.9761 -0.8498  0.9287
18321THY    CA145324   1.545   6.686   2.424  0.3324  0.4331  0.4536
18321THY    CA245325   1.415   6.620   2.406  0.2054 -0.6329 -0.8873
18321THY    CP145326   1.405   6.485   2.338  0.0169  0.5928  0.6051
18321THY    HP145327   1.494   6.437   2.381  0.7900 -0.2174  1.2577
18321THY    CP245328   1.429   6.503   2.182 -0.1131  1.1676 -0.5359
18321THY    HP245329   1.332   6.496   2.131  0.7248 -0.4017 -1.4086
18321THY    HP345330   1.476   6.410   2.148 -0.6031  3.2238 -1.5945
18321THY    HP445331   1.491   6.590   2.157 -1.1369  0.7533  0.0810
18321THY    CP345332   1.272   6.403   2.356  0.0600  0.3348 -0.0022
18321THY    HP545333   1.276   6.306   2.307  1.0366  0.4470 -0.0294
18321THY    HP645334   1.191   6.455   2.303  0.7275  0.7083  1.4732
18321THY    HP745335   1.260   6.387   2.464  0.9018  0.1265 -2.3371
18321THY    CA345336   1.300   6.696   2.441  0.3583  0.2180 -0.1980
18321THY    HA345337   1.201   6.652   2.438  0.4413  1.8453 -0.5875
18321THY    CA445338   1.317   6.820   2.491  0.5453  0.5265 -0.7772
18321THY    HA445339   1.230   6.878   2.520  1.5966 -0.0986  1.2182
18321THY    CA545340   1.440   6.888   2.504 -0.3832  0.4563  0.2768
18321THY    CM145341   1.453   7.028   2.558  0.2096 -0.8270  0.4489
18321THY    HM145342   1.467   7.094   2.472 -0.3713  0.6878  2.6527
18321THY    HM245343   1.544   7.031   2.619 -1.0712  1.3965 -1.7098
18321THY    HM345344   1.370   7.060   2.622  1.1907  0.7447 -0.0506
18321THY    CA645345   1.554   6.817   2.468  0.4887  1.0087  0.5426
18321THY    HA645346   1.653   6.861   2.475  1.6183 -0.2355 -1.6736
18322THY      O45347   0.717   5.654   7.412  0.1804  0.1918 -0.2321
18322THY     HO45348   0.741   5.629   7.321  2.1984  1.2770 -2.7271
18322THY    CA145349   0.695   5.787   7.415  1.2617 -0.1014  0.4321
18322THY    CA245350   0.664   5.853   7.528 -0.2529  0.1114  0.0755
18322THY    CP145351   0.667   5.788   7.668 -0.5216  1.3325 -0.4189
18322THY    HP145352   0.733   5.701   7.662  0.0504 -0.0217  0.0907
18322THY    CP245353   0.536   5.748   7.722 -0.0309 -0.2773  0.8391
18322THY    HP245354   0.491   5.671   7.658 -0.9397  2.5352 -1.1051
18322THY    HP345355   0.474   5.838   7.735  1.9249 -1.6781  2.4709
18322THY    HP445356   0.556   5.711   7.823 -0.8494 -1.1613 -2.2799
18322THY    CP345357   0.731   5.886   7.773  0.2900 -0.3748  0.8531
18322THY    HP545358   0.840   5.880   7.759  0.2770 -0.5422  1.0096
18322THY    HP645359   0.708   5.859   7.877 -0.1928 -0.0485  2.4251
18322THY    HP745360   0.685   5.985   7.772 -1.1681 -1.2692  0.1982
18322THY    CA345361   0.615   5.988   7.508  0.2385  0.4160  0.0512
18322THY    HA345362   0.570   6.037   7.594 -1.5867 -0.4994  0.0412
18322THY    CA445363   0.628   6.054   7.383 -0.2121 -0.2129  0.4791
18322THY    HA445364   0.606   6.160   7.372  2.2312  1.0465  1.2046
18322THY    CA545365   0.670   5.982   7.274 -0.1146 -0.4222  0.2203
18322THY    CM145366   0.662   6.037   7.132  0.7967 -0.0811  0.4974
18322THY    HM145367   0.750   5.993   7.084 -0.8571 -3.8200  0.7930
18322THY    HM245368   0.685   6.144   7.140  0.7113 -1.3856  0.6314
18322THY    HM345369   0.573   6.015   7.072  0.1204  1.3471 -0.8246
18322THY    CA645370   0.696   5.849   7.290 -0.6814 -0.5264 -0.1721
18322THY    HA645371   0.715   5.790   7.201  0.8690 -0.6898  0.5163
18323THY      O45372   7.466   2.584   3.787 -0.3240 -0.2107  0.8874
18323THY     HO45373   7.407   2.560   3.861 -0.0163 -0.3625 -0.4339
18323THY    CA145374   7.558   2.488   3.767  0.0514 -0.7908  0.7538
18323THY    CA245375   7.635   2.474   3.645 -0.0031  0.2304 -0.1880
18323THY    CP145376   7.617   2.572   3.531 -0.8351  0.2720  0.0127
18323THY    HP145377   7.521   2.624   3.543  0.4879  0.1385  2.6826
18323THY    CP245378   7.611   2.508   3.394 -0.1221 -0.0162 -0.6625
18323THY    HP245379   7.522   2.445   3.399 -0.0521  2.0072 -0.6404
18323THY    HP345380   7.702   2.456   3.360 -0.5421 -1.0287 -0.7669
18323THY    HP445381   7.592   2.588   3.321 -1.4092  0.0814 -0.8726
18323THY    CP345382   7.728   2.689   3.523  0.5069 -0.5502  0.2471
18323THY    HP545383   7.686   2.776   3.471 -0.0967  0.2871  0.4633
18323THY    HP645384   7.820   2.651   3.477  0.0151 -0.8901 -0.5600
18323THY    HP745385   7.754   2.722   3.624 -1.6140  0.3163 -0.6234
18323THY    CA345386   7.713   2.365   3.634 -0.4683  0.6592  0.2513
18323THY    HA345387   7.758   2.340   3.538 -1.1169  0.6752 -1.0549
18323THY    CA445388   7.740   2.277   3.743  0.2069  0.9441  0.3403
18323THY    HA445389   7.807   2.192   3.733  1.0178 -0.0469  1.0599
18323THY    CA545390   7.670   2.295   3.862 -0.4454  0.2749  0.3450
18323THY    CM145391   7.670   2.194   3.982  0.2798  0.6478  0.0165
18323THY    HM145392   7.643   2.098   3.937 -0.0472  2.6828 -0.9029
18323THY    HM245393   7.601   2.230   4.059  1.1148  1.3606  0.1280
18323THY    HM345394   7.769   2.166   4.021  0.3592  0.1036 -0.4773
18323THY    CA645395   7.576   2.394   3.871 -0.0680 -0.6002 -0.0200
18323THY    HA645396   7.519   2.406   3.962 -1.2984 -1.5729  2.3014
18324THY      O45397   6.888   1.288   7.562 -0.3647  0.2520 -0.0172
18324THY     HO45398   6.904   1.333   7.646  0.3802 -0.4651  1.1118
18324THY    CA145399   6.986   1.340   7.482 -0.1665  0.4171  0.3520
18324THY    CA245400   7.098   1.264   7.433  0.2930 -1.0656 -0.1919
18324THY    CP145401   7.106   1.113   7.484  0.0451  0.1987  1.0213
18324THY    HP145402   7.016   1.079   7.537 -0.3863 -1.0265  0.1692
18324THY    CP245403   7.228   1.109   7.581  0.5122 -0.2696 -0.5031
18324THY    HP245404   7.217   1.174   7.669 -1.3861 -0.3499 -0.6538
18324THY    HP345405   7.317   1.147   7.531  1.1905  0.3699 -1.2059
18324THY    HP445406   7.249   1.009   7.620  2.7249  0.8087  0.3207
18324THY    CP345407   7.137   1.021   7.366  0.0690  0.2109 -0.6649
18324THY    HP545408   7.055   1.023   7.293 -0.8465  1.1412  2.9556
18324THY    HP645409   7.146   0.919   7.406  2.6434  1.1173 -0.1555
18324THY    HP745410   7.237   1.037   7.326  0.9973  2.6664  0.1782
18324THY    CA345411   7.194   1.331   7.352  0.0955  0.3653 -0.5733
18324THY    HA345412   7.277   1.271   7.315 -0.1302  0.2763 -0.8301
18324THY    CA445413   7.176   1.465   7.313  0.2363  0.5974  0.2205
18324THY    HA445414   7.246   1.517   7.247 -1.5855 -0.1049  1.9443
18324THY    CA545415   7.067   1.540   7.360 -0.5120  0.8342  0.3052
18324THY    CM145416   7.043   1.674   7.315  0.5873 -0.5021 -1.0455
18324THY    HM145417   6.986   1.726   7.393  1.5701 -1.0566  0.9920
18324THY    HM245418   6.986   1.676   7.221 -0.6620  0.0847 -3.9064
18324THY    HM345419   7.133   1.736   7.310 -0.4433  2.3590  0.9128
18324THY    CA645420   6.969   1.472   7.435 -0.1454 -0.5511 -0.5243
18324THY    HA645421   6.884   1.530   7.469  0.4454  2.8406 -1.4060
18325THY      O45422   7.839   1.474   3.544  0.5846  0.3192  0.0574
18325THY     HO45423   7.825   1.518   3.459  1.1637  0.4524  0.5063
18325THY    CA145424   7.744   1.539   3.631 -0.9188  0.4996  0.2756
18325THY    CA245425   7.692   1.476   3.743 -0.2005 -0.2693 -0.1206
18325THY    CP145426   7.707   1.322   3.763  0.6881  0.8132  1.0928
18325THY    HP145427   7.743   1.284   3.667 -1.0056  0.6414 -0.1855
18325THY    CP245428   7.581   1.249   3.802  0.1695  0.2474  0.3226
18325THY    HP245429   7.507   1.264   3.722  0.0731  0.4011  0.6869
18325THY    HP345430   7.532   1.278   3.895  0.0279 -0.2980  1.9224
18325THY    HP445431   7.616   1.145   3.806  1.0788 -0.8409  0.5587
18325THY    CP345432   7.824   1.291   3.863 -0.6392 -1.1823 -0.0804
18325THY    HP545433   7.783   1.294   3.964  2.2565  0.1367 -1.3030
18325THY    HP645434   7.909   1.360   3.854  0.7546 -1.3946 -1.7557
18325THY    HP745435   7.868   1.191   3.859  0.6446  0.4112  0.3846
18325THY    CA345436   7.603   1.547   3.823 -0.8309 -0.4977  0.3581
18325THY    HA345437   7.555   1.493   3.904 -0.0904 -0.4266 -0.2090
18325THY    CA445438   7.572   1.675   3.784  0.2647 -0.2190 -0.3188
18325THY    HA445439   7.497   1.722   3.847 -0.5250  2.1163 -4.2246
18325THY    CA545440   7.625   1.740   3.677  0.6435  0.1104 -0.3400
18325THY    CM145441   7.616   1.889   3.649 -0.5352 -0.1365 -1.4970
18325THY    HM145442   7.657   1.946   3.733  0.2541 -0.8904 -0.9301
18325THY    HM245443   7.513   1.927   3.644  0.8225 -2.1062  2.4445
18325THY    HM345444   7.662   1.917   3.554 -1.8725 -0.5760 -0.7318
18325THY    CA645445   7.715   1.671   3.600  0.3264  0.1230  0.5519
18325THY    HA645446   7.755   1.710   3.507 -0.7036 -1.6341 -2.2903
18326THY      O45447   6.370   7.318   6.341  0.2265 -0.1746  0.1827
18326THY     HO45448   6.338   7.296   6.252 -1.9578  0.5509  0.1921
18326THY    CA145449   6.464   7.409   6.308  0.0658  0.5214  0.0316
18326THY    CA245450   6.573   7.430   6.392  0.6490  0.2381  0.5713
18326THY    CP145451   6.595   7.350   6.526 -0.2938 -0.2817  0.0056
18326THY    HP145452   6.531   7.263   6.545  0.0239  1.1165  0.0477
18326THY    CP245453   6.565   7.447   6.639 -0.0325 -0.1408 -0.2396
18326THY    HP245454   6.579   7.410   6.741 -0.0377  0.1706  0.6035
18326THY    HP345455   6.462   7.484   6.629  0.2427  2.6909  1.6111
18326THY    HP445456   6.627   7.537   6.630  3.6430 -0.0685 -2.5540
18326THY    CP345457   6.745   7.295   6.542  0.2343 -0.1549  1.1617
18326THY    HP545458   6.780   7.243   6.452  2.6635  0.6251  1.3201
18326THY    HP645459   6.742   7.228   6.629 -3.9174  0.9155  2.4273
18326THY    HP745460   6.815   7.374   6.571  0.6965  2.3924 -0.1041
18326THY    CA345461   6.670   7.523   6.351 -0.4927 -0.1755 -0.3512
18326THY    HA345462   6.755   7.537   6.418 -0.0242 -0.2932 -2.3650
18326THY    CA445463   6.650   7.590   6.233  0.0088 -0.3147  0.0994
18326THY    HA445464   6.721   7.667   6.207  2.9987  0.3993 -2.2312
18326THY    CA545465   6.543   7.573   6.154  0.3033 -0.1600  0.0846
18326THY    CM145466   6.511   7.655   6.031 -0.5711 -0.0620 -0.1709
18326THY    HM145467   6.434   7.611   5.966 -1.2847 -0.0054  0.9539
18326THY    HM245468   6.603   7.648   5.972 -1.0907 -1.2407  2.0575
18326THY    HM345469   6.485   7.760   6.050  0.9416 -0.5464  0.3153
18326THY    CA645470   6.451   7.473   6.186  0.2963 -0.1389  0.1885
18326THY    HA645471   6.365   7.447   6.124 -0.2355  0.8118 -0.3805
18327THY      O45472   9.163   8.523   2.146 -0.4372  0.2650  0.1310
18327THY     HO45473   9.230   8.516   2.216  1.0050 -1.1806 -1.7250
18327THY    CA145474   9.202   8.632   2.064 -0.4603 -1.0669 -0.8586
18327THY    CA245475   9.124   8.676   1.959 -0.1336 -0.2283 -0.2863
18327THY    CP145476   9.005   8.593   1.918  0.8226  0.2159  0.3990
18327THY    HP145477   8.987   8.501   1.975  1.0909  0.1884  0.3301
18327THY    CP245478   9.012   8.554   1.768 -0.1272  0.9378 -0.1083
18327THY    HP245479   8.920   8.504   1.737  1.2952 -1.8995 -1.1812
18327THY    HP345480   9.088   8.480   1.739  1.1759 -0.9017  1.8418
18327THY    HP445481   9.031   8.638   1.700 -1.2043  1.8971  0.9697
18327THY    CP345482   8.873   8.665   1.935  0.3585 -0.1289  0.2984
18327THY    HP545483   8.871   8.766   1.892  0.1997 -0.7268  0.0484
18327THY    HP645484   8.850   8.680   2.041  0.0711 -0.2655  0.8418
18327THY    HP745485   8.789   8.610   1.893 -0.2252  1.5640 -0.1700
18327THY    CA345486   9.156   8.794   1.911  0.3176 -0.4456  0.5979
18327THY    HA345487   9.095   8.833   1.830 -1.1290 -0.3077 -1.2413
18327THY    CA445488   9.268   8.863   1.958 -0.3173  0.0641 -0.0175
18327THY    HA445489   9.289   8.958   1.909 -0.4125  0.5261  0.2506
18327THY    CA545490   9.347   8.820   2.063 -1.0337  0.0554 -0.3696
18327THY    CM145491   9.443   8.900   2.138 -0.1940  0.6577 -0.8214
18327THY    HM145492   9.540   8.850   2.134  0.6497  0.3184  0.7587
18327THY    HM245493   9.412   8.924   2.240  0.3144  0.9668 -1.4632
18327THY    HM345494   9.466   8.995   2.088 -1.0191  1.2763 -0.2815
18327THY    CA645495   9.311   8.700   2.114  0.0712 -0.7989 -0.1041
18327THY    HA645496   9.355   8.677   2.211  0.6234 -0.2004  2.9314
18328THY      O45497   5.101   4.135   5.398 -0.5412  0.2613 -0.1906
18328THY     HO45498   5.149   4.198   5.454  1.0820  0.0793 -1.2010
18328THY    CA145499   5.000   4.092   5.476  0.0467  0.0946  1.4083
18328THY    CA245500   4.918   3.988   5.432 -0.7826 -0.3605  0.8254
18328THY    CP145501   4.954   3.915   5.296  0.5637  0.1956 -0.0656
18328THY    HP145502   4.977   3.988   5.218 -0.9950 -1.7022 -1.5121
18328THY    CP245503   4.833   3.842   5.240 -0.2976 -0.0423  0.0092
18328THY    HP245504   4.828   3.739   5.279 -2.4957  1.3823  0.5895
18328THY    HP345505   4.852   3.834   5.132 -0.2152 -0.1414  1.3214
18328THY    HP445506   4.745   3.906   5.256 -0.8694 -1.6921 -0.3024
18328THY    CP345507   5.071   3.812   5.321 -0.0028 -0.5692  0.5617
18328THY    HP545508   5.164   3.861   5.353  0.3503 -0.4300 -0.1777
18328THY    HP645509   5.102   3.744   5.241 -0.4036 -0.1063 -0.1868
18328THY    HP745510   5.041   3.744   5.402 -2.2615 -0.7714  1.2474
18328THY    CA345511   4.826   3.935   5.534  0.0351 -0.0633  0.9641
18328THY    HA345512   4.753   3.858   5.508  0.4129 -0.4535  0.7349
18328THY    CA445513   4.814   3.987   5.661 -0.3831  0.1577 -1.0886
18328THY    HA445514   4.733   3.954   5.725 -0.0052  0.7299 -0.9135
18328THY    CA545515   4.898   4.087   5.694 -0.1995 -0.3418 -0.4471
18328THY    CM145516   4.881   4.137   5.836 -0.1147  0.0406  0.3685
18328THY    HM145517   4.786   4.109   5.884  1.1490  2.6670  0.2871
18328THY    HM245518   4.891   4.245   5.848 -0.1505  1.0870  0.2642
18328THY    HM345519   4.956   4.088   5.900  0.8727 -1.1797  0.2187
18328THY    CA645520   4.992   4.141   5.607 -0.3423  0.5052  0.2812
18328THY    HA645521   5.045   4.229   5.643 -0.4523  1.3007  0.0265
18329THY      O45522   7.512   4.948   6.381  0.4670 -0.3355  0.0589
18329THY     HO45523   7.595   4.901   6.400  0.2076 -0.2572 -0.3727
18329THY    CA145524   7.417   4.911   6.475  0.4460 -0.5169 -0.4872
18329THY    CA245525   7.275   4.924   6.453  0.2124 -0.0333 -0.0976
18329THY    CP145526   7.221   4.983   6.325  0.6333 -0.1728  0.1893
18329THY    HP145527   7.292   5.040   6.265  0.3268 -0.9639 -0.2556
18329THY    CP245528   7.115   5.087   6.360 -0.2912  0.4420  0.3123
18329THY    HP245529   7.088   5.116   6.258 -1.3102 -0.0114 -1.9778
18329THY    HP345530   7.165   5.166   6.418  1.2381  1.3979 -1.2701
18329THY    HP445531   7.026   5.058   6.417 -1.1306  0.3845  2.5963
18329THY    CP345532   7.163   4.874   6.238  0.2997 -0.3148 -0.5547
18329THY    HP545533   7.150   4.910   6.135  1.0213  0.0259  0.7189
18329THY    HP645534   7.069   4.837   6.282  0.0083 -0.2379  0.2606
18329THY    HP745535   7.225   4.783   6.232 -1.6841 -0.8354 -1.9550
18329THY    CA345536   7.189   4.870   6.549  0.1548  0.4413 -0.5118
18329THY    HA345537   7.084   4.888   6.530  0.3858 -1.5759 -0.9443
18329THY    CA445538   7.242   4.822   6.667  0.3458  0.3319  1.1649
18329THY    HA445539   7.169   4.800   6.744 -1.1712 -1.6421 -1.2779
18329THY    CA545540   7.376   4.822   6.688 -0.0939 -0.1130  0.2296
18329THY    CM145541   7.435   4.763   6.812  0.7338  0.3593 -0.6118
18329THY    HM145542   7.544   4.754   6.800  0.7236 -0.8492  0.5310
18329THY    HM245543   7.381   4.669   6.829  0.2077  0.9312 -0.2152
18329THY    HM345544   7.420   4.829   6.898 -1.2663  1.9904 -3.0184
18329THY    CA645545   7.466   4.867   6.593  0.0450  0.1948 -0.0845
18329THY    HA645546   7.574   4.868   6.608 -0.0050  0.6175 -0.5178
18330THY      O45547   2.945   6.473   3.649 -0.4655  0.1367 -0.6988
18330THY     HO45548   2.886   6.440   3.719 -1.4574  0.0775  0.8372
18330THY    CA145549   3.024   6.371   3.617  0.7385 -0.0974 -0.0067
18330THY    CA245550   3.104   6.374   3.506 -0.5638  0.1523 -0.4023
18330THY    CP145551   3.119   6.496   3.410  0.3924  0.1633 -0.0592
18330THY    HP145552   3.049   6.566   3.458 -0.6890  2.6608 -2.6965
18330THY    CP245553   3.067   6.465   3.270  0.0501 -0.1970 -0.5699
18330THY    HP245554   3.125   6.386   3.222  2.2899  0.4707  0.5981
18330THY    HP345555   3.088   6.560   3.218  0.7543  0.4693 -0.3555
18330THY    HP445556   2.962   6.434   3.262  0.3922 -1.7464 -1.4357
18330THY    CP345557   3.256   6.551   3.415 -0.6200 -0.2498  0.0273
18330THY    HP545558   3.326   6.478   3.374  1.7565 -0.3533  2.2140
18330THY    HP645559   3.284   6.593   3.513 -0.3045 -0.7650  1.0673
18330THY    HP745560   3.275   6.628   3.340 -0.3112 -1.2075 -0.9626
18330THY    CA345561   3.178   6.253   3.490  0.0538 -0.2078 -0.0299
18330THY    HA345562   3.244   6.246   3.404 -0.3814 -0.5932  0.4771
18330THY    CA445563   3.169   6.154   3.584  0.2809 -0.0093  0.6987
18330THY    HA445564   3.244   6.076   3.592 -0.0150  0.8488  0.4801
18330THY    CA545565   3.093   6.157   3.698 -0.1093  0.4096  0.0512
18330THY    CM145566   3.106   6.053   3.808  0.3214  0.2211 -1.1281
18330THY    HM145567   3.186   5.980   3.790  0.5634  0.1208 -0.8409
18330THY    HM245568   3.008   6.008   3.829 -1.1693  0.0816  1.8483
18330THY    HM345569   3.142   6.106   3.896  0.4201 -0.7118  0.4009
18330THY    CA645570   3.012   6.265   3.713 -0.2000  0.6506  0.4156
18330THY    HA645571   2.954   6.273   3.804 -1.9561 -0.4233  0.6529
18331THY      O45572   1.819   1.825   1.907 -0.3718  0.1146  0.2038
18331THY     HO45573   1.857   1.757   1.964  1.8764 -2.2180 -0.6883
18331THY    CA145574   1.923   1.910   1.869 -0.2867  0.0685  0.6182
18331THY    CA245575   1.902   1.999   1.765  0.1035 -0.5767 -0.1749
18331THY    CP145576   1.770   2.030   1.700  0.5212  1.1076  0.7883
18331THY    HP145577   1.692   1.970   1.749 -0.3199  0.2044  1.1080
18331THY    CP245578   1.766   1.986   1.554 -0.1787 -0.5291 -0.3481
18331THY    HP245579   1.689   2.040   1.497  0.9552 -1.0385  0.7915
18331THY    HP345580   1.758   1.878   1.538 -0.3071 -0.4696 -0.3464
18331THY    HP445581   1.860   2.013   1.503 -0.2982 -0.0881  0.9964
18331THY    CP345582   1.720   2.173   1.720  1.0302  0.1632  0.3555
18331THY    HP545583   1.703   2.190   1.827  0.1974  0.2115 -0.6945
18331THY    HP645584   1.629   2.190   1.662  0.7841  0.3160 -0.4341
18331THY    HP745585   1.788   2.249   1.679  1.7206 -1.8985 -1.2832
18331THY    CA345586   2.014   2.081   1.731  0.2723  0.4135  0.2970
18331THY    HA345587   2.007   2.160   1.657  0.1864 -1.6287 -1.5391
18331THY    CA445588   2.135   2.077   1.795 -1.1574 -0.2879 -0.1528
18331THY    HA445589   2.216   2.147   1.774 -1.4398 -1.5679 -0.1819
18331THY    CA545590   2.146   1.993   1.901  0.2921 -0.1570  0.4500
18331THY    CM145591   2.271   1.992   1.990  0.0168  0.1450  0.7807
18331THY    HM145592   2.245   2.017   2.093  0.6078  0.8473 -1.3358
18331THY    HM245593   2.352   2.053   1.947  1.7580  1.2115 -0.6900
18331THY    HM345594   2.310   1.890   1.986 -0.8342 -0.3500  0.4624
18331THY    CA645595   2.039   1.924   1.947 -0.7553 -0.0301  0.0427
18331THY    HA645596   2.051   1.872   2.041 -2.0500  1.2338  1.9387
18332THY      O45597   3.074   7.067   2.435 -0.0123  0.7667 -0.3289
18332THY     HO45598   3.125   7.139   2.476 -2.5669 -0.8186  2.6710
18332THY    CA145599   2.983   7.135   2.363  0.2567 -0.6722 -0.1706
18332THY    CA245600   2.866   7.067   2.325 -0.2092  0.4030  0.2260
18332THY    CP145601   2.857   6.915   2.332  0.0509  0.5535  0.7955
18332THY    HP145602   2.954   6.871   2.360  1.3874 -4.0692  0.2651
18332THY    CP245603   2.838   6.847   2.196 -0.3716 -0.0493 -0.0167
18332THY    HP245604   2.733   6.859   2.169 -0.7884  1.7658  0.7797
18332THY    HP345605   2.860   6.740   2.209  0.6488 -0.5855  0.1141
18332THY    HP445606   2.911   6.892   2.129  1.3980  2.5479  1.2492
18332THY    CP345607   2.762   6.880   2.444 -0.3041 -0.4027  0.7242
18332THY    HP545608   2.659   6.910   2.421 -0.9905 -0.8832 -1.7816
18332THY    HP645609   2.795   6.913   2.543 -0.8976 -0.8817  2.9408
18332THY    HP745610   2.752   6.771   2.453  3.0970 -0.4335  0.3282
18332THY    CA345611   2.761   7.145   2.268  0.3895  0.0421  0.6637
18332THY    HA345612   2.681   7.095   2.215  1.6541 -3.6964  2.2355
18332THY    CA445613   2.778   7.285   2.242  0.6454  0.4256  0.0048
18332THY    HA445614   2.693   7.342   2.206  0.6518 -2.9882 -1.8750
18332THY    CA545615   2.896   7.350   2.279 -0.2406 -0.4986  0.4910
18332THY    CM145616   2.920   7.495   2.268  0.6313  0.2743 -0.4427
18332THY    HM145617   2.922   7.544   2.366  1.7872  0.1179 -0.1511
18332THY    HM245618   2.832   7.535   2.215  0.7185  0.3724 -0.1119
18332THY    HM345619   3.005   7.516   2.202 -1.1067 -1.9394  0.1567
18332THY    CA645620   2.996   7.273   2.340 -0.1519 -0.5474 -0.2053
18332THY    HA645621   3.085   7.320   2.379  0.5265 -1.2078 -0.9036
18333THY      O45622   3.032   6.802   6.411  0.0676 -0.0736 -0.0659
18333THY     HO45623   2.957   6.744   6.433 -1.6714 -0.4963  1.8728
18333THY    CA145624   3.147   6.750   6.443 -0.2976  0.2284 -0.6400
18333THY    CA245625   3.229   6.795   6.543  0.5347 -0.0797 -0.2954
18333THY    CP145626   3.189   6.930   6.610 -0.4369  0.6220 -0.5703
18333THY    HP145627   3.080   6.935   6.625 -0.5872 -0.0934 -1.3946
18333THY    CP245628   3.235   7.053   6.528  0.2018 -0.0703 -0.4202
18333THY    HP245629   3.330   7.038   6.476  0.4276 -0.9649  3.2138
18333THY    HP345630   3.236   7.144   6.589  0.1120  0.5246 -0.8144
18333THY    HP445631   3.154   7.079   6.459  1.0496 -0.2108  2.2015
18333THY    CP345632   3.253   6.951   6.743 -0.2969  0.4319  0.2140
18333THY    HP545633   3.238   6.860   6.801  1.5711 -1.7652 -1.6121
18333THY    HP645634   3.199   7.038   6.783  0.2072  0.1930  0.6469
18333THY    HP745635   3.361   6.969   6.736 -0.2680  1.9280  0.8256
18333THY    CA345636   3.335   6.715   6.587  1.1281  0.9862  0.6915
18333THY    HA345637   3.402   6.752   6.664  1.6649  0.3254  1.0997
18333THY    CA445638   3.355   6.591   6.525 -0.0898  0.3905  0.2138
18333THY    HA445639   3.438   6.527   6.555  0.7471  0.1486  1.1685
18333THY    CA545640   3.277   6.553   6.412 -0.0963 -0.0557  0.2727
18333THY    CM145641   3.306   6.433   6.324  0.5057 -0.4267  0.1157
18333THY    HM145642   3.212   6.395   6.283 -0.1973  1.2195 -0.0007
18333THY    HM245643   3.368   6.353   6.365  0.4360 -4.2706 -2.1548
18333THY    HM345644   3.360   6.467   6.235  1.3739 -0.6559 -1.7737
18333THY    CA645645   3.173   6.631   6.376 -0.9976  0.5546 -0.0931
18333THY    HA645646   3.107   6.593   6.299 -2.0346 -0.3485  3.2620
18334THY      O45647   3.890   2.189   1.550  0.1717 -0.3603  0.0844
18334THY     HO45648   3.875   2.094   1.532 -2.5103 -0.6605  0.5056
18334THY    CA145649   3.836   2.209   1.672 -0.4241  0.3030  0.3397
18334THY    CA245650   3.791   2.334   1.713 -0.8643 -0.7247 -0.0902
18334THY    CP145651   3.774   2.443   1.608  0.3062  0.4182 -0.4428
18334THY    HP145652   3.826   2.439   1.512 -0.4382 -0.1308  1.6563
18334THY    CP245653   3.832   2.574   1.660 -0.3830 -0.1652  0.3463
18334THY    HP245654   3.837   2.648   1.579  1.8771  3.3545  4.5416
18334THY    HP345655   3.932   2.554   1.702  0.4347 -2.6870 -1.3923
18334THY    HP445656   3.778   2.616   1.746  0.7944  1.0648 -0.5716
18334THY    CP345657   3.621   2.471   1.576 -0.1120  0.7907 -0.5647
18334THY    HP545658   3.614   2.499   1.470 -0.8427  0.8426 -0.5248
18334THY    HP645659   3.583   2.568   1.612 -3.2718 -0.5243 -1.1823
18334THY    HP745660   3.557   2.389   1.609 -1.7433 -1.3560 -0.2415
18334THY    CA345661   3.749   2.354   1.845  0.0649 -0.3849 -0.1962
18334THY    HA345662   3.709   2.449   1.880 -1.0910 -1.6811 -0.1764
18334THY    CA445663   3.755   2.247   1.935 -0.2099  0.4145  0.3186
18334THY    HA445664   3.713   2.254   2.034  1.4393  1.0959  1.3338
18334THY    CA545665   3.803   2.124   1.893 -0.7604 -1.1657  0.6130
18334THY    CM145666   3.813   2.003   1.979 -0.2325 -0.4039 -0.5170
18334THY    HM145667   3.715   1.987   2.025 -0.6058 -1.3589 -1.0325
18334THY    HM245668   3.876   2.024   2.067 -0.7886 -0.2545  0.5319
18334THY    HM345669   3.852   1.913   1.930  0.6943  1.1986 -1.0336
18334THY    CA645670   3.844   2.108   1.765  0.6117  0.0667  0.7966
18334THY    HA645671   3.872   2.009   1.731 -1.7071  0.7659 -0.1562
18335THY      O45672   8.855   1.550   1.840 -0.4117  0.0781  0.3496
18335THY     HO45673   8.904   1.513   1.915 -1.3207 -0.3145 -1.7996
18335THY    CA145674   8.951   1.614   1.759 -0.0392  0.9089  0.5065
18335THY    CA245675   8.929   1.735   1.690 -0.1665 -0.3630 -0.4674
18335THY    CP145676   8.795   1.803   1.708 -0.3601  0.0963 -0.4386
18335THY    HP145677   8.713   1.759   1.766  0.3666  2.0209  0.6335
18335THY    CP245678   8.737   1.820   1.570  0.5911  0.0007 -0.0571
18335THY    HP245679   8.638   1.865   1.562 -0.5284 -3.3860 -2.7138
18335THY    HP345680   8.739   1.723   1.519 -0.3236 -2.0886  0.9698
18335THY    HP445681   8.809   1.885   1.519 -0.7109  2.1187  3.2960
18335THY    CP345682   8.813   1.938   1.772  0.5441  0.2308 -0.9140
18335THY    HP545683   8.711   1.971   1.798  0.6718 -0.1741 -0.1775
18335THY    HP645684   8.865   2.012   1.709  2.0499  1.2443 -1.0695
18335THY    HP745685   8.866   1.941   1.868  0.2730  0.3823  1.8002
18335THY    CA345686   9.028   1.783   1.603  0.5388  0.4008 -0.3795
18335THY    HA345687   9.016   1.877   1.548  1.1083  1.4240  0.3073
18335THY    CA445688   9.150   1.716   1.590  0.9460 -0.0438 -0.2464
18335THY    HA445689   9.229   1.753   1.526 -0.2240 -0.7651  1.1179
18335THY    CA545690   9.165   1.597   1.662 -0.7131  0.8815 -0.5918
18335THY    CM145691   9.298   1.518   1.643  0.3985 -0.8425 -0.6333
18335THY    HM145692   9.377   1.568   1.699 -1.9437  2.6103 -0.4225
18335THY    HM245693   9.311   1.523   1.534 -0.7683 -0.9796 -0.0467
18335THY    HM345694   9.288   1.421   1.693 -2.1616  2.1821  0.9813
18335THY    CA645695   9.067   1.543   1.734  0.7380 -0.0997 -0.3666
18335THY    HA645696   9.083   1.445   1.777  0.0253  0.5910 -0.1857
18336THY      O45697   3.894   0.950   2.248  0.0718 -0.7117  0.1123
18336THY     HO45698   3.938   0.864   2.254 -0.0715 -0.7155  0.0386
18336THY    CA145699   3.765   0.916   2.249  0.1176  0.3859 -0.1475
18336THY    CA245700   3.658   1.007   2.265 -0.3577  0.3411  0.1105
18336THY    CP145701   3.678   1.162   2.271 -0.0530  0.4542 -0.3771
18336THY    HP145702   3.774   1.196   2.231 -0.9036  0.0546  1.7504
18336THY    CP245703   3.659   1.225   2.408  0.3974 -0.2669 -0.7967
18336THY    HP245704   3.699   1.162   2.488 -1.0357 -1.5139 -3.4731
18336THY    HP345705   3.553   1.208   2.430  0.3111 -0.0261 -0.0128
18336THY    HP445706   3.667   1.334   2.417  1.1037  1.0347 -0.9318
18336THY    CP345707   3.580   1.238   2.184  0.8437  1.3152  0.2934
18336THY    HP545708   3.481   1.250   2.229 -0.3627 -1.0270 -0.1144
18336THY    HP645709   3.572   1.180   2.091  0.1229  2.4597 -1.5212
18336THY    HP745710   3.618   1.339   2.162 -1.1098  1.7949  1.1962
18336THY    CA345711   3.525   0.950   2.273 -0.2517  0.0523 -0.2533
18336THY    HA345712   3.445   1.022   2.285  0.2621 -1.8748  0.7142
18336THY    CA445713   3.503   0.814   2.256 -0.8001 -0.8061 -0.2282
18336THY    HA445714   3.399   0.784   2.263 -1.0084  0.5841  0.7135
18336THY    CA545715   3.607   0.726   2.236 -0.1690 -0.4646 -0.6226
18336THY    CM145716   3.584   0.573   2.224  0.3716 -0.4165 -0.3022
18336THY    HM145717   3.599   0.547   2.330 -2.0837  0.2480  0.7019
18336THY    HM245718   3.653   0.523   2.155  0.1295 -1.8100  1.2008
18336THY    HM345719   3.480   0.555   2.196 -0.1153 -1.2018  2.9902
18336THY    CA645720   3.738   0.776   2.245 -0.2444  0.2609  0.6676
18336THY    HA645721   3.816   0.701   2.255 -0.6854  0.1952  0.1913
18337THY      O45722   2.047   4.930   4.247  0.3391  0.4170  0.2111
18337THY     HO45723   2.071   4.967   4.333 -1.6958  3.1679 -4.0789
18337THY    CA145724   2.118   5.003   4.155  0.3869  0.5836  1.3576
18337THY    CA245725   2.110   4.975   4.015 -0.2339 -0.0144  0.3065
18337THY    CP145726   2.040   4.851   3.966 -0.0891  0.8347  0.4971
18337THY    HP145727   2.027   4.776   4.045  0.1029  0.5567  0.1701
18337THY    CP245728   2.103   4.767   3.859 -0.5696 -0.2611  0.5097
18337THY    HP245729   2.206   4.740   3.887 -0.8804 -0.2858 -0.7910
18337THY    HP345730   2.112   4.822   3.765  2.0763 -0.5404 -0.2945
18337THY    HP445731   2.045   4.675   3.844 -0.6341  2.0966  0.0971
18337THY    CP345732   1.905   4.888   3.920 -0.0740 -0.5547  0.3087
18337THY    HP545733   1.910   4.930   3.819  0.5937 -1.4153 -1.7460
18337THY    HP645734   1.872   4.958   3.999 -0.0566  0.8312 -1.1846
18337THY    HP745735   1.841   4.800   3.910 -0.7850 -0.0578  0.7482
18337THY    CA345736   2.194   5.056   3.928  0.0157 -0.0181 -0.7065
18337THY    HA345737   2.203   5.026   3.823  0.0852 -0.4853  0.8857
18337THY    CA445738   2.249   5.180   3.969  0.7434  0.1978  0.2478
18337THY    HA445739   2.293   5.248   3.897 -0.6600  0.3198  1.3319
18337THY    CA545740   2.239   5.211   4.105 -0.1745  0.0363  0.0919
18337THY    CM145741   2.304   5.347   4.156 -0.2961  0.9653 -0.2370
18337THY    HM145742   2.343   5.393   4.064 -4.3947 -0.9113 -0.0413
18337THY    HM245743   2.380   5.346   4.234  1.9618 -1.0429 -2.8903
18337THY    HM345744   2.219   5.404   4.197 -1.3347 -1.5771  0.1990
18337THY    CA645745   2.183   5.120   4.196 -0.2547  0.3651  0.3059
18337THY    HA645746   2.169   5.146   4.301 -2.4971  0.6450 -1.6359
18338THY      O45747   4.258   6.476   2.330  0.9108 -0.3066  0.1083
18338THY     HO45748   4.207   6.507   2.253  0.2329  0.0935 -0.0040
18338THY    CA145749   4.332   6.584   2.366 -0.2584  0.2910  0.4534
18338THY    CA245750   4.393   6.589   2.494  0.5501 -0.0101  0.2947
18338THY    CP145751   4.395   6.460   2.580  1.1634  0.0220 -0.1809
18338THY    HP145752   4.381   6.367   2.524 -1.6012  2.2031 -1.2227
18338THY    CP245753   4.270   6.470   2.678  0.4082  0.5225  0.3500
18338THY    HP245754   4.172   6.484   2.631 -1.1131  3.8586  2.0071
18338THY    HP345755   4.285   6.550   2.751 -0.2041  0.2539  0.7162
18338THY    HP445756   4.266   6.370   2.724 -1.2071  0.9724  0.5813
18338THY    CP345757   4.520   6.430   2.656 -0.5648 -0.3125  0.4067
18338THY    HP545758   4.522   6.334   2.709 -0.3404 -1.0214  0.0080
18338THY    HP645759   4.543   6.512   2.725  0.0920  1.3559 -1.1198
18338THY    HP745760   4.605   6.432   2.586 -1.2273 -1.2722 -1.8426
18338THY    CA345761   4.476   6.705   2.522 -0.1010 -0.1413  0.2850
18338THY    HA345762   4.541   6.703   2.608 -1.1812  0.6866 -0.8242
18338THY    CA445763   4.491   6.808   2.428 -0.0175  0.5391 -0.5314
18338THY    HA445764   4.555   6.895   2.437 -1.6430 -0.0438  0.7788
18338THY    CA545765   4.420   6.799   2.305 -0.9727 -0.9569  0.0584
18338THY    CM145766   4.440   6.910   2.205  0.1978 -1.2984 -0.0513
18338THY    HM145767   4.494   6.994   2.249  1.0691 -1.0129 -0.7509
18338THY    HM245768   4.342   6.941   2.166 -0.0015 -2.0720 -1.5779
18338THY    HM345769   4.492   6.864   2.120 -0.3467 -0.3490 -2.5704
18338THY    CA645770   4.341   6.692   2.273  0.2411  0.0553  0.5659
18338THY    HA645771   4.297   6.682   2.174  0.8535 -0.4456  2.5019
18339THY      O45772   7.806   4.843   5.584  0.1765 -0.5328 -0.3378
18339THY     HO45773   7.834   4.927   5.543 -1.2615  0.9362  0.9402
18339THY    CA145774   7.841   4.745   5.505  0.0133  0.3606  0.2953
18339THY    CA245775   7.753   4.651   5.448  0.5961 -0.0666  0.0731
18339THY    CP145776   7.602   4.677   5.453  0.3736 -0.0844 -0.0654
18339THY    HP145777   7.594   4.781   5.487 -0.6126  1.5630 -0.6470
18339THY    CP245778   7.537   4.585   5.562  0.1431 -1.4674  0.0664
18339THY    HP245779   7.435   4.561   5.533 -0.7168  1.3114 -0.0190
18339THY    HP345780   7.535   4.643   5.655 -0.2469 -1.4720  0.0590
18339THY    HP445781   7.592   4.492   5.581 -1.4202 -2.1483 -1.0374
18339THY    CP345782   7.524   4.655   5.321 -0.0801 -0.8167  0.0726
18339THY    HP545783   7.476   4.557   5.308 -1.3078 -0.8783  0.6676
18339THY    HP645784   7.588   4.684   5.237  1.3695 -0.3450 -1.5586
18339THY    HP745785   7.435   4.719   5.325 -0.0712  2.6132  0.0765
18339THY    CA345786   7.804   4.540   5.380 -0.0651 -0.1885 -0.6360
18339THY    HA345787   7.736   4.467   5.337 -0.5212  0.8256 -0.8255
18339THY    CA445788   7.941   4.538   5.359 -0.4411 -0.4339  0.4803
18339THY    HA445789   7.974   4.455   5.296 -1.3751 -0.5871  0.2025
18339THY    CA545790   8.024   4.632   5.414 -0.7804  0.4784 -0.6621
18339THY    CM145791   8.175   4.619   5.400  0.9673 -0.4411 -0.3365
18339THY    HM145792   8.219   4.582   5.493  0.5314 -0.0702  0.0824
18339THY    HM245793   8.228   4.712   5.376 -0.7350  0.0468  0.7909
18339THY    HM345794   8.188   4.540   5.324  0.0946 -1.8818  0.8525
18339THY    CA645795   7.980   4.732   5.486  0.1067 -0.3460  0.6719
18339THY    HA645796   8.054   4.795   5.533  2.8591 -0.7270 -2.0207
18340THY      O45797   5.848   2.314   5.418  0.6528  0.0022 -0.4915
18340THY     HO45798   5.931   2.330   5.370 -0.2034 -1.1858  0.5680
18340THY    CA145799   5.884   2.248   5.533  0.5976  0.3764  0.2849
18340THY    CA245800   5.795   2.157   5.607 -0.5478  0.2843 -0.8803
18340THY    CP145801   5.649   2.155   5.588  0.4680  0.0551  0.2299
18340THY    HP145802   5.611   2.230   5.518  0.7230  0.5245  0.7979
18340THY    CP245803   5.575   2.156   5.723 -0.4472  1.2358 -0.5826
18340THY    HP245804   5.479   2.203   5.700  0.6635  0.7703  1.5548
18340THY    HP345805   5.627   2.217   5.797 -0.7012  1.7373 -0.9670
18340THY    HP445806   5.563   2.054   5.761 -1.4294 -0.2845 -1.0693
18340THY    CP345807   5.615   2.018   5.525 -0.1331  0.1044  0.1369
18340THY    HP545808   5.675   1.937   5.567 -0.6979  0.3945 -0.1369
18340THY    HP645809   5.645   2.036   5.421  2.2190  0.8156  0.7234
18340THY    HP745810   5.508   1.995   5.525 -0.4321  0.4615  1.4421
18340THY    CA345811   5.858   2.076   5.701  0.4753 -0.0160  0.2810
18340THY    HA345812   5.803   2.005   5.762 -3.3890 -2.2005  1.0861
18340THY    CA445813   5.992   2.084   5.730  0.6144  0.3254 -0.0027
18340THY    HA445814   6.041   2.027   5.808  1.1766  0.9908  1.3498
18340THY    CA545815   6.070   2.171   5.658  0.0131  0.1154  0.5869
18340THY    CM145816   6.215   2.178   5.683 -0.0834  0.1886  0.2526
18340THY    HM145817   6.242   2.279   5.715  1.0290  0.3661 -0.0890
18340THY    HM245818   6.267   2.167   5.587 -2.7388 -1.5521  1.6967
18340THY    HM345819   6.263   2.097   5.738  0.7494 -1.4804 -0.4509
18340THY    CA645820   6.023   2.245   5.554  0.3667  0.1069  0.3480
18340THY    HA645821   6.087   2.303   5.488  0.1175  0.5141  1.0940
18341THY      O45822   0.833   4.896   7.450 -0.3571  0.1143  0.4962
18341THY     HO45823   0.771   4.822   7.462  1.3992  2.2052 -0.8007
18341THY    CA145824   0.833   4.960   7.567 -0.3448  0.2981 -0.6084
18341THY    CA245825   0.960   5.011   7.611  0.5359 -0.2012  0.5055
18341THY    CP145826   1.084   5.011   7.519  0.1983 -0.4174  0.1158
18341THY    HP145827   1.051   5.016   7.414  2.1942 -1.0864  0.0425
18341THY    CP245828   1.148   4.878   7.515  0.5146 -0.1503 -0.2958
18341THY    HP245829   1.075   4.797   7.524  0.7517 -0.2230 -0.5183
18341THY    HP345830   1.225   4.864   7.591  0.5913  0.0666  1.1178
18341THY    HP445831   1.186   4.851   7.415  2.5105  0.4655  0.0698
18341THY    CP345832   1.184   5.123   7.541 -0.1034  0.2728  0.1109
18341THY    HP545833   1.135   5.220   7.534 -1.5010  0.0672 -0.5853
18341THY    HP645834   1.267   5.116   7.469 -1.7824 -1.6143 -1.7559
18341THY    HP745835   1.225   5.121   7.643 -1.7048  0.9597  1.1196
18341THY    CA345836   0.967   5.058   7.750 -0.1722  0.1457  0.3163
18341THY    HA345837   1.059   5.101   7.789  0.4271 -2.3531  1.4980
18341THY    CA445838   0.847   5.066   7.824 -0.6558  0.8761  0.2711
18341THY    HA445839   0.853   5.126   7.914 -1.9510  0.4082  1.1410
18341THY    CA545840   0.729   5.006   7.773  0.3325  0.3522 -0.6224
18341THY    CM145841   0.602   5.001   7.854 -0.0547  0.2255 -0.5631
18341THY    HM145842   0.622   5.033   7.957 -0.7866 -0.0775  0.9929
18341THY    HM245843   0.561   4.900   7.861  1.2961  0.1265 -1.1344
18341THY    HM345844   0.525   5.061   7.802 -0.0331  0.2761 -0.4913
18341THY    CA645845   0.720   4.956   7.646  0.5383  0.4905  0.0507
18341THY    HA645846   0.623   4.919   7.614 -0.2970  1.9757  0.8501
18342THY      O45847   5.371   4.454   6.278  0.0206  0.2322 -0.1380
18342THY     HO45848   5.369   4.358   6.291 -0.5770  1.8432  0.0633
18342THY    CA145849   5.368   4.502   6.400  0.8985 -0.0615  0.2055
18342THY    CA245850   5.432   4.616   6.441 -0.5549  0.2664  0.2823
18342THY    CP145851   5.527   4.692   6.340  0.1172  0.7687 -0.0662
18342THY    HP145852   5.524   4.657   6.236  2.2602  0.6840 -0.1020
18342THY    CP245853   5.674   4.682   6.383 -0.0334  0.3000  0.1728
18342THY    HP245854   5.701   4.579   6.408  0.8590 -0.3158  0.2480
18342THY    HP345855   5.691   4.747   6.469  0.9660 -0.7513  1.3501
18342THY    HP445856   5.738   4.715   6.301  0.2507  1.1398  1.7868
18342THY    CP345857   5.484   4.838   6.326 -0.9385 -0.0374  0.5070
18342THY    HP545858   5.377   4.839   6.301 -1.5989  2.5655  0.2753
18342THY    HP645859   5.533   4.896   6.246 -2.2802 -1.3960 -0.1507
18342THY    HP745860   5.490   4.890   6.422  1.5872 -0.3304  0.8772
18342THY    CA345861   5.409   4.650   6.578  1.1946 -0.0129  0.0485
18342THY    HA345862   5.463   4.739   6.609 -0.3482  1.2353  0.5913
18342THY    CA445863   5.324   4.583   6.666 -0.2538 -0.4145  0.1657
18342THY    HA445864   5.305   4.624   6.764  2.5250 -0.7121  2.5372
18342THY    CA545865   5.260   4.471   6.621 -0.4122  0.5328  0.3283
18342THY    CM145866   5.168   4.400   6.703 -0.0432 -0.4330  0.2362
18342THY    HM145867   5.215   4.317   6.758  0.4639  0.0925  0.8637
18342THY    HM245868   5.078   4.362   6.652  0.4771 -1.1068 -0.1178
18342THY    HM345869   5.132   4.468   6.781 -0.5794 -0.0030 -0.5195
18342THY    CA645870   5.285   4.430   6.488  0.5149  1.1716 -0.7388
18342THY    HA645871   5.228   4.348   6.446 -0.4081  0.8350  0.0598
18343THY      O45872   0.878   8.329   5.558 -0.0060 -0.0174  0.6048
18343THY     HO45873   0.944   8.262   5.580 -0.7513  0.3362 -0.0288
18343THY    CA145874   0.947   8.442   5.529  0.6468 -0.2590 -0.0044
18343THY    CA245875   0.893   8.564   5.551  0.1121  0.6086  0.3862
18343THY    CP145876   0.754   8.589   5.613 -0.3965  0.0553  0.0128
18343THY    HP145877   0.694   8.497   5.606  1.5225 -1.4631 -1.2072
18343THY    CP245878   0.672   8.697   5.540 -0.1089  0.2200  0.2504
18343THY    HP245879   0.651   8.659   5.440 -0.2203  0.3506 -0.0320
18343THY    HP345880   0.725   8.792   5.527 -2.8729 -2.3405  1.6172
18343THY    HP445881   0.575   8.712   5.590  0.0558  1.6620 -2.8226
18343THY    CP345882   0.759   8.633   5.760  0.5727  0.5761 -0.1050
18343THY    HP545883   0.817   8.562   5.820  0.0943  1.5379  0.3039
18343THY    HP645884   0.660   8.647   5.804  0.6760  0.0876  2.5240
18343THY    HP745885   0.807   8.731   5.760  1.9545  1.9948 -0.7422
18343THY    CA345886   0.981   8.675   5.534 -0.3390  0.3584 -0.1381
18343THY    HA345887   0.953   8.776   5.563  0.0732 -2.0036  0.7034
18343THY    CA445888   1.113   8.655   5.487  1.2018  1.0777 -0.2953
18343THY    HA445889   1.175   8.744   5.478 -0.9924 -1.1114  1.1210
18343THY    CA545890   1.153   8.525   5.461  0.1084  0.0436 -0.0660
18343THY    CM145891   1.302   8.498   5.427 -0.0661  0.3921  0.1272
18343THY    HM145892   1.363   8.465   5.512  0.0899  0.1369 -0.2409
18343THY    HM245893   1.342   8.591   5.385  1.4215 -2.4082 -1.6409
18343THY    HM345894   1.314   8.422   5.349 -0.2381  0.7796 -0.3026
18343THY    CA645895   1.077   8.421   5.478  0.0376 -0.3079  0.1776
18343THY    HA645896   1.110   8.326   5.436 -0.4344  0.9504 -0.5814
18344THY      O45897   2.834   7.092   6.092 -0.2328  0.1390 -0.1590
18344THY     HO45898   2.926   7.063   6.100 -0.5807 -2.9025 -2.5947
18344THY    CA145899   2.795   7.058   5.965 -0.2618  0.0463 -0.0423
18344THY    CA245900   2.659   7.054   5.924 -0.0038 -0.5268 -0.3087
18344THY    CP145901   2.547   7.098   6.026 -0.6632  0.2177  0.6009
18344THY    HP145902   2.598   7.141   6.113 -0.7919  0.7342 -0.2736
18344THY    CP245903   2.485   6.970   6.091 -0.6157  0.1121 -0.5845
18344THY    HP245904   2.568   6.910   6.130  0.0972 -0.6420 -0.0978
18344THY    HP345905   2.427   6.911   6.020 -2.9406  2.1304 -0.9146
18344THY    HP445906   2.419   6.998   6.174  0.8038  0.8507  0.7488
18344THY    CP345907   2.448   7.189   5.969  0.2767 -0.1302 -0.1733
18344THY    HP545908   2.372   7.217   6.043 -1.1326 -1.1628 -1.1148
18344THY    HP645909   2.392   7.151   5.882 -1.5064  1.0568 -0.3894
18344THY    HP745910   2.499   7.284   5.947  0.2307  1.1106  0.1512
18344THY    CA345911   2.624   7.019   5.794 -0.2111  0.1023 -0.3254
18344THY    HA345912   2.520   7.010   5.762  0.0274 -0.6728 -0.4074
18344THY    CA445913   2.727   7.014   5.702 -0.4259 -0.6285  0.6045
18344THY    HA445914   2.694   6.993   5.601 -2.3761  0.2196 -0.6603
18344THY    CA545915   2.862   7.019   5.735 -0.1937 -0.8630 -0.3974
18344THY    CM145916   2.969   7.001   5.633  0.8591  0.2754  0.1238
18344THY    HM145917   2.943   6.936   5.548  0.1720 -0.9329  1.9112
18344THY    HM245918   3.051   6.948   5.684 -0.2277  0.6455 -1.2704
18344THY    HM345919   2.999   7.102   5.602 -2.8777  0.1017  1.2967
18344THY    CA645920   2.895   7.044   5.870 -0.1362  1.3118 -0.2163
18344THY    HA645921   2.998   7.035   5.902  0.7452 -1.4543 -1.0238
18345THY      O45922   2.191   3.536   3.610  0.2740 -0.6852 -0.0434
18345THY     HO45923   2.124   3.597   3.643  0.7092  0.1290 -0.0018
18345THY    CA145924   2.291   3.615   3.564 -0.3029 -0.4708 -0.3058
18345THY    CA245925   2.359   3.589   3.449  0.7737 -0.4305 -1.2957
18345THY    CP145926   2.335   3.469   3.367  0.3168  0.5329  0.6358
18345THY    HP145927   2.262   3.403   3.415  0.0773  1.4037  1.5036
18345THY    CP245928   2.464   3.405   3.331 -0.1600 -0.6677 -0.2688
18345THY    HP245929   2.446   3.300   3.307 -1.2852  1.6618 -0.6642
18345THY    HP345930   2.527   3.396   3.420  1.7203 -1.7903  0.9003
18345THY    HP445931   2.516   3.455   3.248  0.6628  0.5502  0.9867
18345THY    CP345932   2.273   3.517   3.235  0.5751  0.1284 -0.0567
18345THY    HP545933   2.332   3.599   3.192  0.2649  1.8904  1.1483
18345THY    HP645934   2.175   3.563   3.255  0.3209  0.2199 -0.6210
18345THY    HP745935   2.260   3.437   3.161  0.4527  0.2215 -0.1229
18345THY    CA345936   2.466   3.680   3.411 -0.0478 -0.4537 -0.0515
18345THY    HA345937   2.526   3.653   3.324  3.2785  1.2985  1.1343
18345THY    CA445938   2.500   3.789   3.498  0.4477 -0.2096 -0.0745
18345THY    HA445939   2.569   3.867   3.467 -1.8818 -0.8382  1.8696
18345THY    CA545940   2.415   3.820   3.604  0.2108  0.0176 -0.0351
18345THY    CM145941   2.440   3.943   3.693 -0.3183  0.1241 -0.2258
18345THY    HM145942   2.424   3.932   3.801 -0.5941  0.0436 -0.6148
18345THY    HM245943   2.354   4.005   3.665 -0.2890 -0.2234 -0.3419
18345THY    HM345944   2.532   3.999   3.668 -0.9480  1.0196  1.2598
18345THY    CA645945   2.311   3.735   3.640 -0.5199 -0.1676  0.8580
18345THY    HA645946   2.244   3.756   3.723  1.1526  0.7319  2.9718
18346THY      O45947   8.169   0.567   5.821 -0.0569  0.2953 -0.3153
18346THY     HO45948   8.098   0.633   5.817  2.0854 -1.1407  2.1167
18346THY    CA145949   8.165   0.481   5.720  0.4809  0.9838 -0.1514
18346THY    CA245950   8.250   0.365   5.719  1.0016  0.6129  0.0138
18346THY    CP145951   8.349   0.335   5.835  0.3800 -0.2676 -0.2522
18346THY    HP145952   8.305   0.383   5.924  0.1597 -1.2556  1.4918
18346THY    CP245953   8.480   0.403   5.804  0.3914  0.2211  0.2406
18346THY    HP245954   8.466   0.501   5.758 -1.4319 -0.4645 -0.3008
18346THY    HP345955   8.529   0.333   5.735  0.4300 -0.1269  0.6069
18346THY    HP445956   8.546   0.403   5.892  1.3935 -0.5229  0.1973
18346THY    CP345957   8.369   0.190   5.871 -0.3364 -0.2547  0.0784
18346THY    HP545958   8.270   0.144   5.881 -0.1452  2.1602  0.0408
18346THY    HP645959   8.425   0.179   5.965  0.5279 -0.7672  0.0332
18346THY    HP745960   8.411   0.126   5.793 -0.9923 -0.7209  0.2099
18346THY    CA345961   8.232   0.277   5.609  0.4640  0.7100  0.2858
18346THY    HA345962   8.291   0.187   5.601  1.1408 -1.4405  0.8484
18346THY    CA445963   8.145   0.309   5.500  0.0341  0.3360 -0.1713
18346THY    HA445964   8.118   0.237   5.423 -2.6503  1.4628 -0.4793
18346THY    CA545965   8.074   0.432   5.501  0.2565  0.3118 -0.4157
18346THY    CM145966   7.982   0.464   5.388  0.0206  0.0966 -0.0464
18346THY    HM145967   7.982   0.574   5.378  1.0681  4.7134  0.5578
18346THY    HM245968   7.878   0.447   5.418 -0.3459  0.6756  2.6822
18346THY    HM345969   8.008   0.410   5.296 -0.3487  0.7202 -1.3266
18346THY    CA645970   8.080   0.520   5.607 -0.0000 -0.1995  0.9665
18346THY    HA645971   8.011   0.604   5.606  1.3008 -1.6877  2.0806
18347THY      O45972   3.823   8.981   5.678 -0.5444  0.0843 -0.2329
18347THY     HO45973   3.847   8.893   5.644 -0.6811 -0.3000 -0.1259
18347THY    CA145974   3.869   9.082   5.594  0.1818 -0.6383 -0.3944
18347THY    CA245975   3.800   9.119   5.479 -0.5507 -0.2217 -0.5707
18347THY    CP145976   3.675   9.041   5.436  0.1918  0.0703  0.2474
18347THY    HP145977   3.677   8.934   5.461 -1.9860 -0.2860  0.0643
18347THY    CP245978   3.633   9.050   5.288 -0.1368  0.2550 -0.3569
18347THY    HP245979   3.538   8.995   5.280 -1.5169  0.0470  1.9307
18347THY    HP345980   3.701   9.002   5.216  2.3649  0.8794  2.0622
18347THY    HP445981   3.626   9.151   5.245 -0.9370 -1.2746 -1.0165
18347THY    CP345982   3.552   9.095   5.515  0.5603  0.9981 -0.0229
18347THY    HP545983   3.459   9.047   5.484  1.1151  2.7757 -2.4250
18347THY    HP645984   3.549   9.204   5.506 -1.4365 -0.8780 -0.1785
18347THY    HP745985   3.560   9.072   5.622 -1.5624  1.3714  0.7934
18347THY    CA345986   3.847   9.226   5.402  0.5313  0.6217  0.6070
18347THY    HA345987   3.788   9.259   5.317 -0.6740  1.5311  0.9071
18347THY    CA445988   3.955   9.300   5.447 -1.2482 -0.4648 -0.0864
18347THY    HA445989   4.004   9.369   5.379  2.1013  0.0312 -1.7394
18347THY    CA545990   4.017   9.266   5.565  0.1195 -0.1194  0.5405
18347THY    CM145991   4.130   9.346   5.621  0.1969 -0.3220  0.3463
18347THY    HM145992   4.177   9.407   5.544 -1.5569 -1.0669  0.8120
18347THY    HM245993   4.202   9.284   5.675  3.5011 -1.2707  3.0439
18347THY    HM345994   4.104   9.416   5.701 -1.7191  0.1845 -0.8689
18347THY    CA645995   3.976   9.153   5.644 -0.0498  0.8427  0.2409
18347THY    HA645996   4.034   9.127   5.732  0.1517 -0.2011 -3.4919
18348THY      O45997   3.977   4.708   5.051  0.0873 -0.3645  0.6210
18348THY     HO45998   3.989   4.800   5.022 -1.9657  2.1700  1.8211
18348THY    CA145999   4.041   4.637   4.952  0.2318 -0.1262 -0.0161
18348THY    CA246000   4.001   4.502   4.925 -1.0835  0.3500 -0.1235
18348THY    CP146001   3.909   4.414   5.010  0.4831  0.0544 -0.0125
18348THY    HP146002   3.831   4.474   5.058  0.6993 -0.0682  0.3669
18348THY    CP246003   3.991   4.332   5.113 -0.6796 -0.3959  0.6787
18348THY    HP246004   4.062   4.395   5.168 -1.2027  0.2268  0.7344
18348THY    HP346005   4.052   4.260   5.057 -1.1608  0.8085 -0.7112
18348THY    HP446006   3.922   4.283   5.182  0.0118 -0.3321 -0.2321
18348THY    CP346007   3.815   4.313   4.933 -0.2198 -0.2247  0.0937
18348THY    HP546008   3.871   4.259   4.856 -0.1518 -0.6628  0.7742
18348THY    HP646009   3.742   4.372   4.877  0.2240 -2.4972 -1.3531
18348THY    HP746010   3.767   4.234   4.992  1.4474 -1.8906 -2.3084
18348THY    CA346011   4.058   4.434   4.808 -0.1300  0.7039 -0.3907
18348THY    HA346012   4.043   4.328   4.791  0.2607 -0.5282 -0.2589
18348THY    CA446013   4.138   4.508   4.720  0.4102  0.3020 -0.2624
18348THY    HA446014   4.187   4.457   4.638  2.0294  1.1917 -0.2157
18348THY    CA546015   4.169   4.643   4.752  0.1547 -0.4331  0.2960
18348THY    CM146016   4.256   4.728   4.663 -0.2265  0.6907 -0.4539
18348THY    HM146017   4.317   4.657   4.607  0.7247  1.1676 -0.0314
18348THY    HM246018   4.329   4.779   4.727 -1.1149  1.3636 -0.0078
18348THY    HM346019   4.193   4.797   4.605  2.1765  0.0082  1.3283
18348THY    CA646020   4.119   4.706   4.872 -0.0619  0.0037 -0.0619
18348THY    HA646021   4.156   4.806   4.894 -0.5102  0.1325  0.0779
18349THY      O46022   3.066   6.215   2.321 -0.3848  0.1066 -0.0683
18349THY     HO46023   3.027   6.304   2.330  1.5877  2.9701  0.6592
18349THY    CA146024   3.085   6.180   2.453  0.9371  0.7954 -0.0817
18349THY    CA246025   2.975   6.116   2.529 -0.2324  0.3343  0.1013
18349THY    CP146026   2.838   6.122   2.472 -0.1581 -1.0584 -0.5276
18349THY    HP146027   2.825   6.199   2.395 -2.4557  1.1599  1.4678
18349THY    CP246028   2.730   6.139   2.577  0.1953 -1.0605  0.1386
18349THY    HP246029   2.715   6.041   2.625 -1.7513 -1.1385  0.3582
18349THY    HP346030   2.634   6.181   2.543 -2.2335  2.5872 -1.8872
18349THY    HP446031   2.768   6.211   2.650 -0.7893  1.7617 -1.9825
18349THY    CP346032   2.807   5.981   2.398  0.7356 -0.7557  0.0103
18349THY    HP546033   2.871   5.976   2.309  2.6239  0.5630 -0.1283
18349THY    HP646034   2.700   5.991   2.376  0.8167 -1.3683 -0.4113
18349THY    HP746035   2.836   5.900   2.466  1.8322  0.8510  1.6765
18349THY    CA346036   3.000   6.063   2.651  0.3500  0.0433 -0.0894
18349THY    HA346037   2.923   6.024   2.717  1.4829  0.9071 -0.9364
18349THY    CA446038   3.129   6.076   2.700  0.1678 -0.1568 -0.5185
18349THY    HA446039   3.146   6.045   2.803  0.2663  0.5397  1.6256
18349THY    CA546040   3.234   6.137   2.632  0.3393  0.3287 -0.8044
18349THY    CM146041   3.372   6.147   2.678 -0.0410  0.0160 -0.4180
18349THY    HM146042   3.387   6.114   2.781 -1.3695  0.5373  0.5390
18349THY    HM246043   3.408   6.250   2.683 -0.3187 -0.3878 -0.2984
18349THY    HM346044   3.434   6.081   2.615 -1.7758 -1.3705 -0.8038
18349THY    CA646045   3.211   6.177   2.502 -0.1819  0.0637  0.1530
18349THY    HA646046   3.295   6.221   2.449 -0.5815  0.7592  1.8462
18350THY      O46047   2.549   3.510   4.590  0.3231 -0.1474  0.1857
18350THY     HO46048   2.575   3.550   4.675 -2.8194 -0.1861  2.7593
18350THY    CA146049   2.595   3.389   4.582 -0.4560 -0.3627 -0.3783
18350THY    CA246050   2.601   3.319   4.460  0.4802  0.3902 -0.4466
18350THY    CP146051   2.559   3.386   4.332  0.1678 -0.0225  0.4646
18350THY    HP146052   2.500   3.478   4.340  1.1719 -2.6283  1.4573
18350THY    CP246053   2.476   3.289   4.249  0.3388 -0.9885 -0.1879
18350THY    HP246054   2.416   3.234   4.323  2.3279  1.6182  0.9041
18350THY    HP346055   2.534   3.217   4.190 -2.7286 -2.3097 -1.7808
18350THY    HP446056   2.411   3.349   4.184  0.7746 -1.3310 -0.0821
18350THY    CP346057   2.676   3.439   4.249 -0.4462 -0.3671  0.4923
18350THY    HP546058   2.736   3.369   4.190 -0.6447 -1.4611  1.2193
18350THY    HP646059   2.744   3.502   4.308  0.0214 -1.5183  1.1039
18350THY    HP746060   2.634   3.520   4.187 -0.1804  0.6430  1.4244
18350THY    CA346061   2.654   3.188   4.468  0.5587  0.0067  0.2259
18350THY    HA346062   2.675   3.134   4.376  0.7211  1.1825 -1.8270
18350THY    CA446063   2.696   3.141   4.590  0.5190 -0.4812  0.4473
18350THY    HA446064   2.736   3.040   4.598 -0.6413 -0.5740 -0.0316
18350THY    CA546065   2.679   3.207   4.711 -0.2908 -0.0929  0.7892
18350THY    CM146066   2.710   3.138   4.843 -0.3001 -0.2674  0.3821
18350THY    HM146067   2.818   3.136   4.862 -0.4772  0.8842  0.7979
18350THY    HM246068   2.672   3.035   4.852 -2.6150  4.2555  1.3476
18350THY    HM346069   2.670   3.194   4.929 -1.8399  1.3732 -2.9241
18350THY    CA646070   2.622   3.333   4.705  0.0559 -0.3187  0.4420
18350THY    HA646071   2.599   3.384   4.798 -1.5464 -0.3716 -0.1187
18351THY      O46072   7.638   4.270   3.335 -0.5629 -0.5159  0.1396
18351THY     HO46073   7.588   4.352   3.353 -0.9890  1.7478 -0.5733
18351THY    CA146074   7.755   4.308   3.294  0.0545  0.2774  0.1850
18351THY    CA246075   7.856   4.209   3.253 -0.2710  0.8695  0.0711
18351THY    CP146076   7.830   4.061   3.252 -0.5210 -0.1134  0.1319
18351THY    HP146077   7.772   4.030   3.339 -1.3676 -1.1178 -1.2602
18351THY    CP246078   7.955   3.975   3.262 -0.2337  0.3873  0.2483
18351THY    HP246079   7.931   3.873   3.295  0.3281  2.0933  0.6361
18351THY    HP346080   8.026   4.018   3.334 -0.3499  2.4723 -2.7162
18351THY    HP446081   8.009   3.950   3.170 -2.0657 -0.9825  1.1825
18351THY    CP346082   7.737   4.024   3.142 -0.0327  0.8778 -0.7643
18351THY    HP546083   7.656   4.097   3.143  0.8670  0.3613  0.2797
18351THY    HP646084   7.689   3.928   3.163 -0.0515  1.0950 -0.7073
18351THY    HP746085   7.783   4.032   3.042  0.1398  1.0028 -0.1971
18351THY    CA346086   7.976   4.258   3.206 -0.3052  0.1543  0.4179
18351THY    HA346087   8.056   4.197   3.166 -0.5448  0.7011 -0.2685
18351THY    CA446088   8.002   4.394   3.188  0.1206  0.2389 -0.5592
18351THY    HA446089   8.095   4.421   3.141  0.8481  1.6224 -0.5551
18351THY    CA546090   7.907   4.489   3.229  0.2830  1.2072  1.6080
18351THY    CM146091   7.933   4.631   3.219  0.0015 -0.7405  0.3544
18351THY    HM146092   7.866   4.686   3.287 -1.3731 -2.4572  0.8821
18351THY    HM246093   7.898   4.673   3.124 -0.5675 -0.6350  0.1252
18351THY    HM346094   8.035   4.655   3.250 -0.1935  0.3250 -0.1083
18351THY    CA646095   7.780   4.446   3.276 -0.0917 -0.0315 -0.2408
18351THY    HA646096   7.702   4.521   3.283 -0.1274  0.1043 -0.2905
18352THY      O46097   0.227   8.888   2.087 -0.4235  0.6706 -0.3578
18352THY     HO46098   0.190   8.851   2.169 -1.4052  0.6735  0.5931
18352THY    CA146099   0.336   8.960   2.116  0.4048  0.7281 -0.2702
18352THY    CA246100   0.416   9.041   2.024 -0.1659  0.3255  0.5618
18352THY    CP146101   0.409   9.033   1.871 -0.2370 -0.1587 -0.5845
18352THY    HP146102   0.323   8.967   1.852 -1.6664 -2.3967  1.7536
18352THY    CP246103   0.529   8.962   1.807  0.0117 -0.3264 -0.5166
18352THY    HP246104   0.626   8.998   1.842 -0.4784  3.2618 -2.2734
18352THY    HP346105   0.529   8.967   1.697  0.6440 -0.2750  1.7927
18352THY    HP446106   0.536   8.861   1.849 -1.6965  0.2065 -0.4462
18352THY    CP346107   0.368   9.170   1.811  0.1320  0.3779 -0.3271
18352THY    HP546108   0.269   9.205   1.844 -0.1448 -1.7052  1.1136
18352THY    HP646109   0.372   9.163   1.702  2.0510  0.3416  0.5299
18352THY    HP746110   0.444   9.248   1.825  2.0904 -2.2300 -1.6161
18352THY    CA346111   0.512   9.120   2.072  1.1209 -0.0528 -0.0297
18352THY    HA346112   0.567   9.185   2.005  1.1651  0.2361  0.2319
18352THY    CA446113   0.534   9.117   2.207 -0.4511 -0.3848  0.0685
18352THY    HA446114   0.624   9.173   2.232 -0.2801 -0.0035 -0.3706
18352THY    CA546115   0.465   9.042   2.299  0.5198  0.8092  0.7680
18352THY    CM146116   0.504   9.018   2.437  0.4000  0.1175  0.3475
18352THY    HM146117   0.420   9.000   2.504  1.5569  1.6447  0.3994
18352THY    HM246118   0.551   9.109   2.477  0.7407 -0.3080  0.3612
18352THY    HM346119   0.558   8.923   2.447  0.8790 -0.5981  0.5333
18352THY    CA646120   0.359   8.966   2.249 -0.1986  0.0578 -0.8881
18352THY    HA646121   0.303   8.909   2.323  0.2422  0.9319 -0.2053
18353THY      O46122   5.137   0.071   4.243  0.0502  0.1312 -0.2806
18353THY     HO46123   5.085   0.032   4.171 -3.6515  2.0917  0.5647
18353THY    CA146124   5.076   0.194   4.275  0.2911 -0.6538  0.5689
18353THY    CA246125   5.141   0.286   4.358  0.1593 -0.2216  0.4092
18353THY    CP146126   5.270   0.240   4.428  0.0719  0.7500 -0.2669
18353THY    HP146127   5.330   0.193   4.349 -0.2126 -0.1784  0.8802
18353THY    CP246128   5.248   0.138   4.535 -0.0526 -0.1906 -0.5621
18353THY    HP246129   5.343   0.106   4.578  0.3033 -0.0940  0.5803
18353THY    HP346130   5.192   0.046   4.514  1.9651  0.5008 -2.0198
18353THY    HP446131   5.196   0.184   4.620  0.3836  0.5050 -1.3348
18353THY    CP346132   5.352   0.353   4.493  0.0371 -0.6999 -0.0135
18353THY    HP546133   5.440   0.315   4.546 -0.5763  0.2514 -0.1566
18353THY    HP646134   5.290   0.409   4.565 -0.7117  0.3040 -2.0043
18353THY    HP746135   5.395   0.413   4.413  1.3546 -1.4612 -1.8695
18353THY    CA346136   5.079   0.412   4.376 -0.6950  0.7047  0.5341
18353THY    HA346137   5.112   0.481   4.453 -1.5000  2.2813 -0.7457
18353THY    CA446138   4.961   0.444   4.311  0.5183 -0.2592  0.2822
18353THY    HA446139   4.908   0.532   4.347 -0.3543  0.4131 -0.5020
18353THY    CA546140   4.895   0.353   4.231 -0.0901  0.0363  0.0213
18353THY    CM146141   4.756   0.380   4.171  0.2055 -0.0589 -0.1942
18353THY    HM146142   4.758   0.469   4.108  1.6450  0.7757  0.4069
18353THY    HM246143   4.672   0.385   4.242 -1.9734 -2.4557 -0.7528
18353THY    HM346144   4.733   0.302   4.097  1.0435 -2.4865  1.7486
18353THY    CA646145   4.952   0.224   4.212  0.0108 -0.2029  0.5302
18353THY    HA646146   4.897   0.156   4.148 -0.9295  1.3865 -0.2591
18354THY      O46147   6.902   3.930   2.481 -0.0525  0.2870 -0.0622
18354THY     HO46148   6.941   4.018   2.497  0.6305  1.7842 -0.6103
18354THY    CA146149   6.910   3.878   2.607  0.5254 -1.1139  0.0035
18354THY    CA246150   6.908   3.737   2.631 -0.1463 -0.7353 -0.6387
18354THY    CP146151   6.866   3.630   2.530 -0.6231  0.4129 -0.4213
18354THY    HP146152   6.826   3.680   2.440  1.2651  1.1697  2.7482
18354THY    CP246153   6.761   3.537   2.581 -0.3584 -1.2815 -0.1912
18354THY    HP246154   6.796   3.460   2.651 -1.2056  1.6627  1.9635
18354THY    HP346155   6.736   3.467   2.501 -0.3681 -0.5356 -1.0591
18354THY    HP446156   6.685   3.593   2.635  0.9256  0.4230 -0.0053
18354THY    CP346157   6.985   3.554   2.474 -0.2659  0.0105  0.4497
18354THY    HP546158   7.042   3.515   2.559 -0.4218  0.4218  1.0924
18354THY    HP646159   7.048   3.624   2.418 -1.4038 -1.4484  0.3731
18354THY    HP746160   6.957   3.475   2.403  1.7893  0.3271 -0.6140
18354THY    CA346161   6.943   3.689   2.761  0.8666  0.6995 -0.1052
18354THY    HA346162   6.944   3.581   2.771  0.0896  0.5302 -0.1363
18354THY    CA446163   6.966   3.777   2.862  0.1835  0.0246  0.7048
18354THY    HA446164   6.981   3.742   2.963  0.2585 -0.1283  0.2845
18354THY    CA546165   6.963   3.916   2.835  0.2125 -0.1969  0.2137
18354THY    CM146166   7.028   4.016   2.930 -0.4781 -0.7151  0.0116
18354THY    HM146167   7.089   3.953   2.995 -0.4022  0.4936  1.2779
18354THY    HM246168   6.960   4.070   2.998  0.4382  0.8894 -0.7920
18354THY    HM346169   7.083   4.096   2.879  0.1606  0.3372  0.2764
18354THY    CA646170   6.945   3.968   2.707  0.6215  0.6159 -0.1643
18354THY    HA646171   6.950   4.076   2.695  1.1495  0.2162 -0.2296
18355THY      O46172   2.543   1.262   3.691  0.3829  0.1671 -0.0336
18355THY     HO46173   2.592   1.325   3.746  2.7996 -2.2682  0.3985
18355THY    CA146174   2.537   1.308   3.562  0.3373  0.2181 -0.0034
18355THY    CA246175   2.473   1.239   3.456 -0.0325 -0.0710  0.6291
18355THY    CP146176   2.413   1.102   3.486 -0.0738  0.2735  0.2480
18355THY    HP146177   2.415   1.090   3.595 -0.0270  0.0448 -2.4379
18355THY    CP246178   2.494   0.992   3.411 -0.1707  0.7968  0.2254
18355THY    HP246179   2.594   0.975   3.453  0.5058 -0.7620  0.1836
18355THY    HP346180   2.511   1.008   3.304 -5.7490 -0.3324  0.5715
18355THY    HP446181   2.430   0.904   3.414 -0.9895 -1.4455  0.6742
18355THY    CP346182   2.264   1.097   3.454 -0.4079  0.2877 -0.1341
18355THY    HP546183   2.243   1.085   3.347  0.1453 -0.1284  2.1843
18355THY    HP646184   2.206   1.182   3.493 -3.0189 -0.3122 -1.5102
18355THY    HP746185   2.218   1.009   3.501 -1.4120 -0.1141  0.1533
18355THY    CA346186   2.475   1.290   3.328 -0.2500 -0.3026  0.8027
18355THY    HA346187   2.449   1.226   3.245 -1.0333 -1.6928  2.8107
18355THY    CA446188   2.542   1.415   3.305 -0.7999  0.0590 -0.4038
18355THY    HA446189   2.563   1.447   3.203 -1.9544  0.1217  0.6406
18355THY    CA546190   2.593   1.487   3.409  0.1378  0.7676 -0.0065
18355THY    CM146191   2.649   1.628   3.375  0.3269 -0.1413  0.0698
18355THY    HM146192   2.698   1.669   3.464 -0.4645  0.6156 -0.5846
18355THY    HM246193   2.574   1.706   3.360  0.7556  0.1267  0.5387
18355THY    HM346194   2.722   1.629   3.293 -1.1976 -1.5644 -0.1578
18355THY    CA646195   2.588   1.435   3.540  0.2014 -0.0455  0.2614
18355THY    HA646196   2.630   1.491   3.623 -3.5237  1.4198  1.2243
18356THY      O46197   2.754   8.679   5.991 -0.3599 -0.3112  0.0788
18356THY     HO46198   2.753   8.750   6.059 -1.6859  0.8036 -0.9558
18356THY    CA146199   2.774   8.733   5.863  0.3679  0.3709 -0.0674
18356THY    CA246200   2.775   8.650   5.751 -0.3295  1.1866  0.9487
18356THY    CP146201   2.750   8.501   5.765  0.5041  0.0809  0.4338
18356THY    HP146202   2.695   8.486   5.859  0.2981 -0.2152 -0.7764
18356THY    CP246203   2.880   8.415   5.774 -0.7329  0.5326  0.8233
18356THY    HP246204   2.957   8.468   5.831 -0.2547  0.6136  0.0557
18356THY    HP346205   2.923   8.421   5.673 -1.6640  0.0680 -0.0454
18356THY    HP446206   2.867   8.314   5.814  0.0640  2.5969  1.4992
18356THY    CP346207   2.649   8.444   5.659  0.3204 -0.5947  0.2438
18356THY    HP546208   2.559   8.506   5.647  0.5435 -0.2706  0.6335
18356THY    HP646209   2.625   8.338   5.676 -0.8891 -2.2251  0.2169
18356THY    HP746210   2.687   8.457   5.557  0.3943 -0.5841  0.1154
18356THY    CA346211   2.806   8.708   5.624 -0.3925  0.0952 -0.8618
18356THY    HA346212   2.812   8.648   5.533  1.3410 -0.0694 -0.4909
18356THY    CA446213   2.829   8.848   5.616  0.2237  0.0782  0.0073
18356THY    HA446214   2.862   8.889   5.521 -0.0618 -0.0993 -0.1706
18356THY    CA546215   2.838   8.928   5.734 -0.4589  0.5807 -0.2289
18356THY    CM146216   2.896   9.077   5.722  0.7697 -0.2427  0.4708
18356THY    HM146217   2.848   9.134   5.642 -0.6158  0.2484  0.0621
18356THY    HM246218   3.003   9.071   5.703  0.8767  0.4629  0.0434
18356THY    HM346219   2.884   9.124   5.820 -0.7748  0.0239 -0.3936
18356THY    CA646220   2.803   8.875   5.858  0.5041  0.3356  0.9942
18356THY    HA646221   2.812   8.934   5.949  1.5109  0.3732  0.7903
18357THY      O46222   2.146   4.657   4.751  0.5298  0.0402 -0.1705
18357THY     HO46223   2.228   4.707   4.742  0.6010 -0.0089 -0.2942
18357THY    CA146224   2.119   4.613   4.628 -0.5744  0.5439 -0.2887
18357THY    CA246225   1.990   4.567   4.603 -0.7123  0.5575 -0.0887
18357THY    CP146226   1.887   4.552   4.707  1.3144 -0.4787  0.4450
18357THY    HP146227   1.943   4.520   4.796  0.7407 -0.0290  0.6626
18357THY    CP246228   1.779   4.449   4.681  0.4341  0.4936 -0.3473
18357THY    HP246229   1.832   4.358   4.652  2.3058  0.3212  0.7483
18357THY    HP346230   1.699   4.464   4.609 -0.9614  1.8211 -1.0900
18357THY    HP446231   1.745   4.428   4.784  2.0659  0.8868 -1.3130
18357THY    CP346232   1.817   4.688   4.721 -0.3795 -0.1527 -0.4956
18357THY    HP546233   1.893   4.757   4.761 -1.2085  0.2278  0.2117
18357THY    HP646234   1.734   4.680   4.791 -0.2333  0.4941  2.4174
18357THY    HP746235   1.778   4.726   4.626 -0.9959  1.4176  3.2531
18357THY    CA346236   1.975   4.533   4.460  0.4849  0.1182  0.6892
18357THY    HA346237   1.883   4.488   4.423  0.5823  0.9142 -0.1813
18357THY    CA446238   2.068   4.562   4.364  0.3358  0.3428  0.1010
18357THY    HA446239   2.046   4.546   4.259 -1.4207  0.4756  1.3074
18357THY    CA546240   2.194   4.609   4.400  0.6442 -0.0423 -0.0208
18357THY    CM146241   2.300   4.619   4.302  0.2954 -0.2773 -0.7825
18357THY    HM146242   2.366   4.532   4.307  1.4709  0.5236  0.1213
18357THY    HM246243   2.372   4.699   4.326  0.5841 -0.5595 -0.9555
18357THY    HM346244   2.259   4.639   4.202  0.0643  0.2724  1.8256
18357THY    CA646245   2.222   4.634   4.531  0.1517 -0.5193  0.2384
18357THY    HA646246   2.323   4.662   4.558 -0.2932  1.6185 -0.0503
18358THY      O46247   3.696   1.773   6.532  0.3464 -0.9631  0.0743
18358THY     HO46248   3.648   1.846   6.490  1.2290  1.4777  2.2015
18358THY    CA146249   3.720   1.808   6.658  0.4755  1.1110 -0.0293
18358THY    CA246250   3.767   1.720   6.754  0.1272 -0.2514  1.1845
18358THY    CP146251   3.779   1.570   6.710 -0.1556 -0.2143  0.1246
18358THY    HP146252   3.797   1.558   6.602 -0.9941 -0.3838  0.3859
18358THY    CP246253   3.637   1.509   6.731  1.0884 -0.1368  0.4961
18358THY    HP246254   3.639   1.409   6.686 -1.0125  3.3282 -1.2923
18358THY    HP346255   3.563   1.572   6.682 -1.1307  3.0761  0.6102
18358THY    HP446256   3.620   1.504   6.839 -1.8156 -0.5658 -0.4740
18358THY    CP346257   3.891   1.492   6.764 -0.2592  0.7080  0.1679
18358THY    HP546258   3.984   1.520   6.712  0.4939  0.2260 -2.8532
18358THY    HP646259   3.868   1.389   6.734  1.5218  0.1013 -0.0975
18358THY    HP746260   3.901   1.513   6.871  1.3736  0.3795  1.3279
18358THY    CA346261   3.773   1.763   6.890 -0.9970  0.3807  0.8196
18358THY    HA346262   3.784   1.696   6.975 -1.8325  0.7999  1.2048
18358THY    CA446263   3.749   1.900   6.919 -0.6222 -0.6798 -0.3904
18358THY    HA446264   3.755   1.944   7.018  1.6295 -0.9958  0.1354
18358THY    CA546265   3.725   1.991   6.817 -0.3251 -0.3475  0.4104
18358THY    CM146266   3.729   2.136   6.841  0.1435 -0.3444  0.2049
18358THY    HM146267   3.780   2.181   6.755 -0.7215 -0.9460  0.0592
18358THY    HM246268   3.783   2.172   6.929  0.5975 -0.6679  0.3154
18358THY    HM346269   3.631   2.185   6.847 -0.5642  1.6776 -1.3192
18358THY    CA646270   3.708   1.945   6.685  0.3912  0.2366 -1.2001
18358THY    HA646271   3.684   2.020   6.610 -0.0029  0.5781 -0.9826
18359THY      O46272   2.469   5.602   3.124 -0.0435 -0.3246  0.9914
18359THY     HO46273   2.543   5.665   3.131  0.8649  5.4526 -0.0831
18359THY    CA146274   2.444   5.567   2.996  0.2076 -0.2637 -0.0183
18359THY    CA246275   2.424   5.431   2.952  0.3536 -0.7837 -0.0992
18359THY    CP146276   2.434   5.316   3.054 -0.9953 -0.0568  0.3619
18359THY    HP146277   2.478   5.357   3.146 -0.2184  0.0971 -0.7754
18359THY    CP246278   2.528   5.200   3.000 -0.5517  0.8337 -0.6137
18359THY    HP246279   2.630   5.234   2.978 -0.5616  0.0321 -1.0873
18359THY    HP346280   2.493   5.139   2.916  1.0036  0.4456 -1.0223
18359THY    HP446281   2.549   5.140   3.090  1.6245  1.3426  0.7894
18359THY    CP346282   2.298   5.261   3.087  0.0488 -0.0002  0.7737
18359THY    HP546283   2.218   5.336   3.089 -0.6443 -1.7852  0.1334
18359THY    HP646284   2.291   5.190   3.170  0.0004  0.8267  1.7225
18359THY    HP746285   2.260   5.196   3.007 -2.7500  1.7823  0.0142
18359THY    CA346286   2.394   5.410   2.813  1.1345  0.3275  0.4888
18359THY    HA346287   2.369   5.311   2.776 -0.1963  3.2988 -0.4135
18359THY    CA446288   2.391   5.513   2.729 -0.6444  0.9362 -0.2433
18359THY    HA446289   2.385   5.499   2.622  3.1761  0.4457  0.7036
18359THY    CA546290   2.408   5.643   2.773  0.1649  0.4679 -1.3151
18359THY    CM146291   2.401   5.759   2.685  0.3288  0.2338  0.4797
18359THY    HM146292   2.346   5.731   2.594  0.5839  0.4232 -0.6927
18359THY    HM246293   2.508   5.772   2.664  0.4210  1.3996  1.8745
18359THY    HM346294   2.372   5.858   2.723 -1.7307 -1.0232  0.4293
18359THY    CA646295   2.436   5.668   2.904  0.2815  0.1196 -0.7452
18359THY    HA646296   2.447   5.771   2.938 -1.7435 -0.8310 -0.1623
18360THY      O46297   7.037   4.991   7.433  0.4067 -0.6273 -0.0100
18360THY     HO46298   6.985   4.950   7.362 -0.4766 -0.2398  0.4007
18360THY    CA146299   7.062   5.126   7.394  0.1125  0.1895  0.6955
18360THY    CA246300   7.091   5.228   7.489 -0.1811 -0.1790 -0.1698
18360THY    CP146301   7.109   5.187   7.635  0.3098 -0.3589  0.9254
18360THY    HP146302   7.108   5.079   7.654 -0.4760 -0.4377  0.9097
18360THY    CP246303   7.004   5.256   7.724 -0.6123 -0.2220  0.6117
18360THY    HP246304   7.004   5.365   7.727 -1.0751  1.0378  0.5861
18360THY    HP346305   7.015   5.211   7.823 -1.8608 -0.4627 -0.3057
18360THY    HP446306   6.903   5.224   7.695 -0.2239 -0.3099 -0.5881
18360THY    CP346307   7.247   5.226   7.698 -0.2207 -0.2050  0.6586
18360THY    HP546308   7.283   5.328   7.676 -0.5768  1.4766  1.1828
18360THY    HP646309   7.320   5.157   7.656  0.5353  0.9260  0.7345
18360THY    HP746310   7.255   5.209   7.806 -1.7971 -0.3731 -1.6144
18360THY    CA346311   7.111   5.361   7.441 -0.1594  0.1895 -0.1652
18360THY    HA346312   7.129   5.433   7.521  0.6940  0.6690 -0.8949
18360THY    CA446313   7.107   5.391   7.306 -0.3022 -0.3374 -0.4547
18360THY    HA446314   7.137   5.491   7.276  2.0287  0.7301 -0.7526
18360THY    CA546315   7.079   5.296   7.215 -0.0976  0.6828  0.4133
18360THY    CM146316   7.078   5.320   7.070  0.8950  0.5036  0.3759
18360THY    HM146317   6.971   5.302   7.051 -0.0450  4.5757  0.5904
18360THY    HM246318   7.156   5.253   7.033 -0.6805  0.6573 -1.6504
18360THY    HM346319   7.094   5.424   7.042  0.2488  2.3406  1.0232
18360THY    CA646320   7.064   5.162   7.261 -0.2998 -0.3995  0.1244
18360THY    HA646321   7.044   5.080   7.192  0.1167  1.0766 -1.2646
18361THY      O46322   5.192   3.220   4.812 -0.3448  0.0898 -0.1327
18361THY     HO46323   5.279   3.263   4.815 -0.5422 -0.6690  0.3302
18361THY    CA146324   5.174   3.177   4.686 -0.1009 -0.1616 -0.9092
18361THY    CA246325   5.130   3.052   4.643  0.8566 -1.2144  0.7182
18361THY    CP146326   5.119   2.943   4.756  0.2936  0.0689 -0.5972
18361THY    HP146327   5.189   2.962   4.838  0.8457 -0.6250  0.4626
18361THY    CP246328   5.159   2.797   4.719 -0.0834  0.4684  0.2211
18361THY    HP246329   5.264   2.795   4.686 -0.4001 -0.5686 -0.7353
18361THY    HP346330   5.084   2.748   4.656 -0.8012  0.9799  0.6528
18361THY    HP446331   5.164   2.740   4.813  4.7015  0.2117 -0.1844
18361THY    CP346332   4.975   2.958   4.807  0.0714 -0.4370  0.9088
18361THY    HP546333   4.896   2.945   4.732  0.7444 -1.0272  0.0586
18361THY    HP646334   4.960   3.058   4.849  2.1890 -0.0032  1.1092
18361THY    HP746335   4.953   2.881   4.882 -0.6263 -1.8443 -0.3196
18361THY    CA346336   5.116   3.013   4.509  0.0561  0.7244 -0.0974
18361THY    HA346337   5.087   2.913   4.479 -1.1898  2.6604 -0.3731
18361THY    CA446338   5.133   3.117   4.415 -0.2244 -0.5437 -0.2781
18361THY    HA446339   5.109   3.088   4.313 -2.2014  0.7112 -3.7400
18361THY    CA546340   5.185   3.243   4.452  0.0270  0.1982  0.0140
18361THY    CM146341   5.211   3.334   4.340 -0.1433  0.1903  0.2074
18361THY    HM146342   5.212   3.286   4.241  0.8607 -1.0824  2.6232
18361THY    HM246343   5.308   3.383   4.355  0.4472 -0.6526 -0.6751
18361THY    HM346344   5.135   3.413   4.336 -0.5800  0.5029 -0.1978
18361THY    CA646345   5.202   3.271   4.592 -0.0149  0.4206 -0.2134
18361THY    HA646346   5.233   3.369   4.629  1.2327  0.2266 -0.5109
18362THY      O46347   8.250   4.770   4.021 -0.1298  0.0849 -0.1327
18362THY     HO46348   8.305   4.835   3.976  1.5217  0.8625 -0.9407
18362THY    CA146349   8.174   4.702   3.929 -0.6044  0.2813  0.1587
18362THY    CA246350   8.178   4.564   3.913  0.3958  0.3779  0.6843
18362THY    CP146351   8.273   4.472   4.002 -0.3149 -0.1236 -0.6369
18362THY    HP146352   8.322   4.530   4.081  2.4560 -3.1025  1.4378
18362THY    CP246353   8.376   4.397   3.920  0.3822 -0.3301 -0.7238
18362THY    HP246354   8.340   4.333   3.838  0.2926 -1.2462  0.4631
18362THY    HP346355   8.453   4.349   3.980  1.5264  0.9619  2.4579
18362THY    HP446356   8.438   4.473   3.872 -1.0028  0.9367  1.3165
18362THY    CP346357   8.188   4.375   4.080  0.2685 -0.0668 -0.4594
18362THY    HP546358   8.114   4.424   4.144 -1.8495 -2.1903 -0.6766
18362THY    HP646359   8.248   4.327   4.158  0.1411 -0.3926 -1.1608
18362THY    HP746360   8.144   4.295   4.018 -0.0870  0.6832 -0.8545
18362THY    CA346361   8.102   4.506   3.812  0.4690  0.3547 -0.1337
18362THY    HA346362   8.098   4.398   3.801  0.6928  1.3344 -0.2603
18362THY    CA446363   8.043   4.582   3.723  0.3885  0.6636 -0.5112
18362THY    HA446364   7.995   4.541   3.634  2.9924 -1.7127  1.1820
18362THY    CA546365   8.047   4.718   3.727 -0.3649 -0.7194 -0.5139
18362THY    CM146366   7.971   4.797   3.622 -0.0486  0.4339  0.0455
18362THY    HM146367   7.864   4.775   3.628 -0.0945  1.5392  0.5421
18362THY    HM246368   7.998   4.776   3.518  1.1113  0.4826  1.1819
18362THY    HM346369   7.987   4.902   3.647  0.5013 -0.5750  0.2128
18362THY    CA646370   8.102   4.781   3.843 -0.6027 -0.1570 -0.0780
18362THY    HA646371   8.115   4.889   3.844  1.7376  3.1367 -0.2115
18363THY      O46372   3.755   2.183   3.553  0.3142 -0.3103  0.1598
18363THY     HO46373   3.716   2.094   3.546  2.0268  2.4649 -0.9437
18363THY    CA146374   3.876   2.160   3.497 -0.0102 -0.6229 -0.3876
18363THY    CA246375   3.943   2.260   3.427  0.2107  0.9431 -0.1813
18363THY    CP146376   3.882   2.403   3.418  0.8253 -0.0798  0.2282
18363THY    HP146377   3.827   2.432   3.508  0.4931  0.6054 -2.2471
18363THY    CP246378   3.803   2.426   3.286  0.4123  0.0024 -1.0394
18363THY    HP246379   3.705   2.376   3.278 -0.6507 -0.6890  1.0492
18363THY    HP346380   3.859   2.391   3.199  2.9700  0.1511  2.2397
18363THY    HP446381   3.798   2.534   3.267  0.6186 -2.2088 -1.3730
18363THY    CP346382   3.998   2.500   3.415 -1.0623  0.7455 -0.4652
18363THY    HP546383   4.080   2.463   3.477 -0.8866 -0.0416 -1.4362
18363THY    HP646384   3.966   2.598   3.453 -1.7821  0.7386 -0.6887
18363THY    HP746385   4.035   2.516   3.313 -2.7446  0.1577 -0.0767
18363THY    CA346386   4.064   2.226   3.356  0.2961 -0.4668 -0.3346
18363THY    HA346387   4.120   2.308   3.314  0.0880  3.9614  2.4021
18363THY    CA446388   4.114   2.091   3.358  0.3759  0.1111 -1.1779
18363THY    HA446389   4.203   2.068   3.300  0.1848 -1.8026  2.2143
18363THY    CA546390   4.040   1.994   3.430  0.6224 -0.3119  0.3518
18363THY    CM146391   4.089   1.854   3.430 -0.1528 -0.0566  0.7944
18363THY    HM146392   4.123   1.822   3.529  1.1979 -0.9558 -0.6997
18363THY    HM246393   4.175   1.849   3.362 -0.1280  0.0682 -2.2337
18363THY    HM346394   4.005   1.797   3.389 -0.0880  1.0542 -0.1281
18363THY    CA646395   3.927   2.033   3.498 -0.0709 -0.9589 -0.8475
18363THY    HA646396   3.871   1.953   3.546 -0.1649  0.4268  0.0153
18364THY      O46397   2.005   4.371   3.091  0.0543 -0.2058 -0.1180
18364THY     HO46398   2.046   4.316   3.022  0.6405  0.9517 -1.1732
18364THY    CA146399   1.993   4.290   3.199 -0.2983 -0.1220 -0.0452
18364THY    CA246400   1.877   4.270   3.273  0.8866 -0.9162  0.6613
18364THY    CP146401   1.743   4.320   3.220 -0.1568 -0.4745 -0.1541
18364THY    HP146402   1.748   4.364   3.119 -1.0282 -0.8251 -0.8104
18364THY    CP246403   1.693   4.435   3.303  0.6425 -0.2950  0.0782
18364THY    HP246404   1.770   4.510   3.324 -0.8612 -0.0044  1.5977
18364THY    HP346405   1.666   4.395   3.402  3.1753  0.4454  0.0336
18364THY    HP446406   1.605   4.491   3.268  0.8177 -1.5039 -0.3841
18364THY    CP346407   1.631   4.216   3.209  0.5477 -0.4006  0.3955
18364THY    HP546408   1.659   4.132   3.145 -3.3936 -1.5754 -0.2439
18364THY    HP646409   1.546   4.262   3.158 -0.3102  0.6796  0.0558
18364THY    HP746410   1.596   4.172   3.304  0.1198 -0.8705 -0.3009
18364THY    CA346411   1.874   4.188   3.389 -0.3199 -0.1525 -0.4824
18364THY    HA346412   1.777   4.178   3.436  0.1752  1.1992  0.6815
18364THY    CA446413   1.989   4.130   3.431 -0.1548 -0.3387 -1.0188
18364THY    HA446414   1.974   4.075   3.523  0.3626 -0.4703 -1.3860
18364THY    CA546415   2.106   4.146   3.357 -0.4066  0.0247 -0.0101
18364THY    CM146416   2.239   4.097   3.412 -0.2741  0.4857 -0.1524
18364THY    HM146417   2.325   4.092   3.344 -1.0910 -0.4832 -1.5616
18364THY    HM246418   2.232   3.992   3.445 -2.4251 -0.3851 -0.3277
18364THY    HM346419   2.260   4.145   3.509  0.7084  1.5989 -2.6508
18364THY    CA646420   2.109   4.233   3.240 -0.9366  0.1776  0.7359
18364THY    HA646421   2.201   4.253   3.186 -1.2175 -0.6230 -0.0868
18365THY      O46422   0.315   6.750   4.830  0.2074 -0.1140  0.8151
18365THY     HO46423   0.234   6.702   4.807 -1.6922 -0.6713  4.0322
18365THY    CA146424   0.365   6.695   4.947  0.8982 -0.0904  0.2696
18365THY    CA246425   0.441   6.768   5.040  0.1632 -0.2917 -0.3309
18365THY    CP146426   0.497   6.906   5.010  0.6758  0.0848 -0.0441
18365THY    HP146427   0.446   6.945   4.921 -0.1305  0.8855  0.7790
18365THY    CP246428   0.641   6.881   4.978  0.4443 -0.2179  0.6618
18365THY    HP246429   0.640   6.810   4.894 -0.0812  0.2879  0.0621
18365THY    HP346430   0.688   6.832   5.063 -0.9303  0.2030  0.0171
18365THY    HP446431   0.689   6.971   4.937 -0.2203 -1.3239  0.5381
18365THY    CP346432   0.469   7.007   5.125 -0.8240 -0.2042  0.0701
18365THY    HP546433   0.530   6.984   5.213 -0.3805 -0.5011  0.1078
18365THY    HP646434   0.364   7.001   5.157 -1.1631 -0.3949  3.3884
18365THY    HP746435   0.483   7.111   5.094 -1.6694 -0.8139  0.0110
18365THY    CA346436   0.480   6.701   5.163  0.0169 -0.6003 -0.5569
18365THY    HA346437   0.528   6.757   5.243 -3.3349  0.6165  0.8173
18365THY    CA446438   0.445   6.570   5.186  0.4614  0.6731 -0.6361
18365THY    HA446439   0.489   6.526   5.275  1.5281  0.8073  0.6240
18365THY    CA546440   0.367   6.500   5.094 -0.5672  0.1722  0.2216
18365THY    CM146441   0.338   6.350   5.120 -0.7971  0.1561 -0.1402
18365THY    HM146442   0.362   6.310   5.219 -3.6526  0.9256 -0.1954
18365THY    HM246443   0.401   6.295   5.049  0.0688  1.0415 -0.3041
18365THY    HM346444   0.231   6.330   5.108 -1.2100  1.1811  1.2706
18365THY    CA646445   0.321   6.567   4.982  0.0695  0.0896  0.3928
18365THY    HA646446   0.260   6.513   4.909  0.0953  0.2959  0.0805
18366THY      O46447   3.265   7.749   4.974 -0.1198  0.6717 -0.0127
18366THY     HO46448   3.298   7.829   4.931 -1.5910 -1.5365 -0.5165
18366THY    CA146449   3.205   7.678   4.872  0.2617 -0.2494 -0.3817
18366THY    CA246450   3.206   7.535   4.869  0.2944 -0.1659 -0.3512
18366THY    CP146451   3.280   7.443   4.970  0.3721  1.0322 -0.1367
18366THY    HP146452   3.321   7.496   5.057 -0.6300  2.5437 -1.7428
18366THY    CP246453   3.403   7.374   4.909  0.3818  0.3096 -0.2456
18366THY    HP246454   3.380   7.317   4.819 -0.2321 -1.4839  2.5968
18366THY    HP346455   3.452   7.311   4.984 -0.4274  2.8751  1.9707
18366THY    HP446456   3.471   7.455   4.878  0.7076 -1.9692 -1.3179
18366THY    CP346457   3.176   7.340   5.030  0.0862  0.5969  0.4055
18366THY    HP546458   3.084   7.398   5.042  0.8747  0.0491  1.8250
18366THY    HP646459   3.223   7.311   5.125  1.3196 -0.4756 -1.3224
18366THY    HP746460   3.150   7.256   4.965  0.0429  0.7152  0.3276
18366THY    CA346461   3.131   7.480   4.764  0.5016 -0.4669  0.4084
18366THY    HA346462   3.131   7.372   4.757  1.5829  0.7809  0.2973
18366THY    CA446463   3.061   7.565   4.668 -0.3977  0.4144  0.2758
18366THY    HA446464   3.003   7.508   4.596  0.6357  0.2464 -0.6199
18366THY    CA546465   3.065   7.703   4.675 -0.1365 -0.2015 -0.0835
18366THY    CM146466   2.984   7.781   4.580  0.4359 -0.7681 -0.7999
18366THY    HM146467   2.875   7.769   4.585  0.4672 -2.0537 -1.9392
18366THY    HM246468   3.011   7.760   4.475  0.0352 -1.0096 -0.1341
18366THY    HM346469   3.001   7.889   4.586 -3.4257 -1.0693 -0.0468
18366THY    CA646470   3.146   7.761   4.771  0.4150  0.5735 -0.0623
18366THY    HA646471   3.148   7.869   4.766  1.0702 -3.7158 -0.1290
18367THY      O46472   1.546   5.241   2.422  0.0948  0.1968  0.2704
18367THY     HO46473   1.461   5.198   2.443 -1.8555 -1.9609  2.7585
18367THY    CA146474   1.536   5.262   2.288  0.3588 -0.0128  0.2498
18367THY    CA246475   1.641   5.324   2.214  0.0835 -0.4642 -0.0745
18367THY    CP146476   1.768   5.361   2.291 -0.4334 -0.1132  0.5256
18367THY    HP146477   1.767   5.350   2.400  2.0227 -0.0264  0.6760
18367THY    CP246478   1.823   5.502   2.272  0.0666 -0.2591 -0.3076
18367THY    HP246479   1.888   5.518   2.358 -0.5737 -0.1877  2.4322
18367THY    HP346480   1.738   5.569   2.288 -3.0692 -0.4514 -3.8813
18367THY    HP446481   1.865   5.519   2.172  0.8062 -0.5004 -3.1132
18367THY    CP346482   1.883   5.272   2.246 -0.5531  0.4324 -0.2167
18367THY    HP546483   1.933   5.303   2.153  1.8099  1.7771  0.2226
18367THY    HP646484   1.834   5.176   2.224  1.3930 -0.2051 -1.1175
18367THY    HP746485   1.955   5.266   2.329 -0.7515  0.5409 -1.1958
18367THY    CA346486   1.630   5.337   2.075 -0.2840 -0.1714 -0.4477
18367THY    HA346487   1.710   5.389   2.023 -0.7048 -1.4598 -1.0486
18367THY    CA446488   1.515   5.289   2.010 -0.4084  0.3124  0.3939
18367THY    HA446489   1.500   5.305   1.904 -2.8126  0.2040 -1.9847
18367THY    CA546490   1.411   5.233   2.084 -0.0006  0.1325 -0.2884
18367THY    CM146491   1.283   5.181   2.025 -1.0042 -0.3937 -0.1081
18367THY    HM146492   1.218   5.143   2.105  1.1852  2.1291  1.1306
18367THY    HM246493   1.312   5.110   1.948 -0.8287  0.2533 -0.7457
18367THY    HM346494   1.232   5.258   1.966  0.8524 -1.0254  0.6804
18367THY    CA646495   1.425   5.222   2.222  0.6925 -0.3980  0.2754
18367THY    HA646496   1.350   5.172   2.283  2.2853 -0.9429 -3.0244
18368THY      O46497   3.623   1.946   6.329 -0.2553 -0.5022  0.2433
18368THY     HO46498   3.526   1.940   6.321 -0.4445  1.8723 -0.9687
18368THY    CA146499   3.653   2.051   6.256 -0.0551 -0.5548  0.0090
18368THY    CA246500   3.780   2.090   6.220 -0.5461  0.2025 -0.1780
18368THY    CP146501   3.902   2.015   6.270  0.2710 -0.0805  0.0246
18368THY    HP146502   3.877   1.912   6.301  1.7192 -0.9655 -0.6206
18368THY    CP246503   3.960   2.083   6.393 -0.0865 -0.1063  1.3159
18368THY    HP246504   4.021   2.006   6.443 -0.9308  0.1096  0.7662
18368THY    HP346505   3.887   2.103   6.472  0.7180  1.2256 -0.6475
18368THY    HP446506   4.004   2.179   6.366  1.3132  0.0844  0.7517
18368THY    CP346507   4.021   1.992   6.167  0.5014  0.2431 -0.5340
18368THY    HP546508   4.065   2.090   6.144 -0.9970  3.0995  0.9106
18368THY    HP646509   3.985   1.952   6.072  1.5827  0.2771 -1.6618
18368THY    HP746510   4.112   1.944   6.207  1.6321 -1.7190 -0.1669
18368THY    CA346511   3.798   2.202   6.138 -0.2520  0.4513 -0.0562
18368THY    HA346512   3.898   2.233   6.106 -1.0674 -2.5828 -0.1712
18368THY    CA446513   3.686   2.269   6.093 -0.3599 -0.1282 -0.1691
18368THY    HA446514   3.705   2.348   6.020  1.9883 -1.4927 -1.8533
18368THY    CA546515   3.559   2.233   6.134  0.2784 -0.2816  0.5179
18368THY    CM146516   3.445   2.315   6.094  0.3641  0.2951  0.2347
18368THY    HM146517   3.435   2.417   6.133 -2.8998 -2.0531  0.9818
18368THY    HM246518   3.358   2.258   6.127  0.4443 -0.3258 -0.2546
18368THY    HM346519   3.434   2.312   5.985  2.1052  0.0640  0.8584
18368THY    CA646520   3.540   2.124   6.217  0.6940 -0.6481  0.0961
18368THY    HA646521   3.442   2.113   6.265  0.6360 -0.5332  1.0483
18369THY      O46522   5.578   1.518   7.583 -0.3749  0.2940 -0.1583
18369THY     HO46523   5.551   1.445   7.525 -2.0753 -1.0322  1.4252
18369THY    CA146524   5.481   1.611   7.602 -0.3698  0.1723  0.4758
18369THY    CA246525   5.512   1.743   7.562  0.6595  0.6322  0.2385
18369THY    CP146526   5.650   1.781   7.532  0.1242 -0.2017 -0.2718
18369THY    HP146527   5.721   1.711   7.578 -0.5366  0.0312 -0.8019
18369THY    CP246528   5.706   1.908   7.590  0.2982  0.4125  0.3134
18369THY    HP246529   5.815   1.897   7.587  0.3416  1.4534  0.4036
18369THY    HP346530   5.666   1.923   7.691  0.2910  0.2601  1.4018
18369THY    HP446531   5.661   1.981   7.521 -0.7170  1.0213  0.2888
18369THY    CP346532   5.677   1.778   7.385  0.2977 -0.5356 -0.5169
18369THY    HP546533   5.776   1.818   7.358 -0.6603 -1.8201  1.1279
18369THY    HP646534   5.611   1.846   7.329  3.1406 -3.3593  0.1812
18369THY    HP746535   5.666   1.683   7.333 -1.3650 -3.4377  1.1149
18369THY    CA346536   5.408   1.839   7.571  0.5273  0.3596  0.1614
18369THY    HA346537   5.436   1.941   7.545  2.6864  1.7336 -0.0184
18369THY    CA446538   5.289   1.803   7.632 -0.4512  0.6125  0.2931
18369THY    HA446539   5.209   1.874   7.652  0.3953  1.7043  0.9760
18369THY    CA546540   5.256   1.671   7.655 -0.0970 -0.0797  0.7974
18369THY    CM146541   5.121   1.622   7.702  0.4905  0.0929 -0.3990
18369THY    HM146542   5.055   1.709   7.705 -0.5445 -2.6447 -0.9942
18369THY    HM246543   5.120   1.573   7.800 -0.3139  0.7590  0.8881
18369THY    HM346544   5.073   1.551   7.634  1.3386 -0.0222 -0.8770
18369THY    CA646545   5.351   1.571   7.628  0.7305  0.7681 -0.7872
18369THY    HA646546   5.322   1.467   7.642  0.9301  0.7254 -0.8493
18370THY      O46547   2.998   4.558   1.991  0.4566 -0.4342 -0.4561
18370THY     HO46548   3.002   4.627   2.059 -1.2487 -1.6386  0.9082
18370THY    CA146549   2.925   4.453   2.026  0.1373 -0.4345 -0.0851
18370THY    CA246550   2.882   4.356   1.934  0.5773  0.1140 -0.7776
18370THY    CP146551   2.911   4.377   1.781 -0.1740  0.2711  1.1142
18370THY    HP146552   2.922   4.483   1.757  0.1662 -1.9392  0.6307
18370THY    CP246553   2.815   4.323   1.670 -0.6247 -0.1781 -0.0383
18370THY    HP246554   2.714   4.355   1.699  0.1746  0.0383  2.5515
18370THY    HP346555   2.821   4.215   1.655  3.6748  1.0364 -0.1514
18370THY    HP446556   2.839   4.379   1.579 -0.1853  0.3847  0.7053
18370THY    CP346557   3.052   4.328   1.749  0.4835 -0.2023  0.2913
18370THY    HP546558   3.059   4.220   1.769  1.3209 -1.1018  0.1693
18370THY    HP646559   3.129   4.373   1.813  3.8067 -2.0344 -2.3640
18370THY    HP746560   3.071   4.351   1.644  0.0155 -0.5106 -0.6488
18370THY    CA346561   2.792   4.257   1.985 -0.5487  0.4522 -0.3650
18370THY    HA346562   2.764   4.175   1.918  2.2797  0.9772 -1.8866
18370THY    CA446563   2.750   4.254   2.119  0.0992 -0.2327  0.3648
18370THY    HA446564   2.684   4.175   2.154  0.5133  0.4925  0.3369
18370THY    CA546565   2.790   4.353   2.208  0.6049 -0.1623  0.1878
18370THY    CM146566   2.740   4.351   2.346  0.8774  0.3834 -0.3879
18370THY    HM146567   2.798   4.426   2.402  2.7777 -1.0312 -0.7293
18370THY    HM246568   2.761   4.259   2.400  1.7641 -1.5086 -1.3404
18370THY    HM346569   2.632   4.375   2.349  0.7931 -0.2839 -0.6811
18370THY    CA646570   2.885   4.445   2.157  0.4330 -0.7332  0.7258
18370THY    HA646571   2.903   4.522   2.230 -1.6265  0.3635  0.2439
18371THY      O46572   6.524   0.999   3.488  0.1299 -0.1495 -0.1324
18371THY     HO46573   6.532   1.080   3.434 -0.2817  0.6998  0.4922
18371THY    CA146574   6.386   0.996   3.511  0.3639  0.8144  0.2832
18371THY    CA246575   6.325   0.919   3.604 -0.2073  0.1557  0.0476
18371THY    CP146576   6.409   0.808   3.663 -0.5823 -0.1294 -0.0140
18371THY    HP146577   6.515   0.794   3.639 -0.6271 -0.4510  0.1890
18371THY    CP246578   6.351   0.662   3.635 -0.0914  0.0449  0.0755
18371THY    HP246579   6.295   0.645   3.542 -1.9044  1.0534  0.3039
18371THY    HP346580   6.273   0.638   3.708  0.5592  1.3830  1.8611
18371THY    HP446581   6.417   0.575   3.646 -0.6009 -0.5711 -0.3991
18371THY    CP346582   6.426   0.836   3.818  0.5811  0.0635 -0.3065
18371THY    HP546583   6.325   0.840   3.861  0.6103  0.0566  0.6368
18371THY    HP646584   6.465   0.937   3.833 -3.6476  0.0722  1.5528
18371THY    HP746585   6.496   0.768   3.868 -0.9669  1.3208 -1.0357
18371THY    CA346586   6.186   0.918   3.622  0.1374  0.5707 -0.1427
18371THY    HA346587   6.144   0.846   3.692  1.9953  1.3969 -0.4599
18371THY    CA446588   6.110   1.013   3.551  0.7526 -0.1752  0.2639
18371THY    HA446589   6.003   1.012   3.571  0.7086 -0.4118 -0.6010
18371THY    CA546590   6.177   1.105   3.463  1.1289 -0.6967  0.3073
18371THY    CM146591   6.103   1.207   3.390 -0.0081  0.3366 -0.7359
18371THY    HM146592   6.119   1.310   3.423 -3.0849  1.0356 -0.4062
18371THY    HM246593   5.998   1.189   3.415  0.6717  4.2663 -0.1576
18371THY    HM346594   6.127   1.202   3.283  0.1958  0.0908  2.9228
18371THY    CA646595   6.314   1.098   3.442 -0.5811 -0.2547  0.5347
18371THY    HA646596   6.362   1.167   3.374 -0.8052 -0.5171  0.4310
18372THY      O46597   1.824   3.983   4.882  0.5226  0.3179 -0.2663
18372THY     HO46598   1.800   3.954   4.971  0.4766  0.9506  1.5688
18372THY    CA146599   1.916   4.080   4.898  0.0568 -0.1620  0.8555
18372THY    CA246600   2.023   4.097   4.812 -0.2283 -0.3053  0.2535
18372THY    CP146601   2.031   4.002   4.686 -0.0461 -0.1308 -0.2572
18372THY    HP146602   1.954   3.924   4.686 -0.0658 -1.5112 -0.2674
18372THY    CP246603   2.165   3.939   4.687 -0.0868  0.2312 -0.4634
18372THY    HP246604   2.192   3.909   4.789 -1.1319  0.9287  0.8560
18372THY    HP346605   2.242   4.012   4.660 -0.0127 -0.7037 -0.8661
18372THY    HP446606   2.175   3.858   4.613 -2.1982 -1.3360  0.6040
18372THY    CP346607   2.020   4.096   4.564 -0.0018  0.0241 -0.0148
18372THY    HP546608   1.930   4.159   4.568  0.3474 -0.5620  0.5389
18372THY    HP646609   2.005   4.033   4.475  1.2477 -0.5932  0.5186
18372THY    HP746610   2.105   4.164   4.551 -0.3940  2.2219  0.9699
18372THY    CA346611   2.115   4.203   4.829 -0.2553 -0.4077  0.1664
18372THY    HA346612   2.206   4.214   4.771 -0.9160 -1.6563 -0.6743
18372THY    CA446613   2.099   4.294   4.935  0.0101  0.2133  0.6860
18372THY    HA446614   2.164   4.380   4.937 -0.6621 -0.4597  1.2216
18372THY    CA546615   1.976   4.287   5.011 -0.7883 -0.2084  0.3636
18372THY    CM146616   1.945   4.394   5.114 -0.1220  0.1167  0.0657
18372THY    HM146617   1.839   4.409   5.134  0.3502  1.7483  1.5290
18372THY    HM246618   1.976   4.489   5.070 -1.2651  1.3950  1.0611
18372THY    HM346619   2.007   4.386   5.205  1.7198 -1.0929 -0.1824
18372THY    CA646620   1.886   4.181   4.996  0.1732  0.3875 -0.0833
18372THY    HA646621   1.793   4.173   5.052  0.0605  0.0908 -0.9665
18373THY      O46622   5.775   6.771   6.911  0.1085 -0.3964 -0.7104
18373THY     HO46623   5.720   6.734   6.840 -0.2971 -1.4166  1.6336
18373THY    CA146624   5.742   6.905   6.905 -0.4740  0.2028 -0.1635
18373THY    CA246625   5.747   6.981   7.022  0.1459 -0.0928  0.4397
18373THY    CP146626   5.807   6.933   7.156  0.1204  0.3224  0.1301
18373THY    HP146627   5.864   6.843   7.130 -0.6348  0.3239 -0.3627
18373THY    CP246628   5.696   6.884   7.255 -0.4789 -0.0885  0.1996
18373THY    HP246629   5.632   6.821   7.194  0.7082  0.3618 -1.5125
18373THY    HP346630   5.642   6.964   7.307  1.9074  0.4380  1.5775
18373THY    HP446631   5.738   6.823   7.336  0.8319 -1.0045 -0.1584
18373THY    CP346632   5.906   7.029   7.222 -0.2659 -0.4146  0.3994
18373THY    HP546633   5.852   7.103   7.282  0.8963  0.0950  0.8475
18373THY    HP646634   5.966   7.091   7.154 -2.1767 -2.2224  0.3856
18373THY    HP746635   5.972   6.977   7.292 -0.8324  0.5330  0.9252
18373THY    CA346636   5.702   7.117   6.998  0.3923 -0.4649 -0.7050
18373THY    HA346637   5.698   7.177   7.088  0.8101 -0.2587 -0.9864
18373THY    CA446638   5.636   7.164   6.883  0.1008  0.0486 -0.4295
18373THY    HA446639   5.591   7.262   6.873  0.4730 -0.4218 -0.3040
18373THY    CA546640   5.631   7.086   6.772  0.3810  0.2320  0.4849
18373THY    CM146641   5.573   7.129   6.648 -0.1107 -0.5608 -0.3806
18373THY    HM146642   5.520   7.225   6.656 -1.9172 -2.0345 -1.1844
18373THY    HM246643   5.490   7.068   6.611 -1.2377  1.9078 -0.4956
18373THY    HM346644   5.656   7.133   6.578  1.3212  1.0190 -1.1997
18373THY    CA646645   5.692   6.959   6.777 -0.1513  0.0758 -0.4105
18373THY    HA646646   5.687   6.887   6.696 -0.1726  0.4858 -0.8767
18374THY      O46647   4.355   1.628   2.166  0.2450 -0.4369 -0.5225
18374THY     HO46648   4.280   1.618   2.228 -0.4176 -1.0672  0.3783
18374THY    CA146649   4.457   1.691   2.234 -0.0472  0.0585 -0.5526
18374THY    CA246650   4.548   1.777   2.165 -0.6716 -0.3605 -0.5794
18374THY    CP146651   4.528   1.798   2.013 -0.3146 -0.3735  0.0514
18374THY    HP146652   4.498   1.706   1.961 -0.7130 -0.5147  0.2585
18374THY    CP246653   4.660   1.813   1.945  0.1143  0.6995 -0.2746
18374THY    HP246654   4.645   1.804   1.837  1.4120  0.6030 -1.7134
18374THY    HP346655   4.734   1.736   1.972 -1.8130  0.5565 -2.2470
18374THY    HP446656   4.701   1.914   1.961  0.1020  0.2986 -0.2034
18374THY    CP346657   4.416   1.899   1.968 -0.1834 -1.4157 -0.4525
18374THY    HP546658   4.406   1.905   1.859  1.0550 -1.4744  1.9726
18374THY    HP646659   4.446   1.998   2.004  1.0287  0.8862 -1.5702
18374THY    HP746660   4.318   1.876   2.012 -0.2909 -1.4664 -0.0983
18374THY    CA346661   4.641   1.855   2.240  0.4717 -0.0568  0.3231
18374THY    HA346662   4.699   1.935   2.195  0.5414 -0.2926  0.1424
18374THY    CA446663   4.635   1.842   2.377 -0.0708  0.3449 -0.3103
18374THY    HA446664   4.701   1.903   2.437 -2.1292  0.6378  1.7801
18374THY    CA546665   4.554   1.756   2.446  0.3718 -0.5283  0.5007
18374THY    CM146666   4.541   1.773   2.599  0.1611 -0.0918  0.1399
18374THY    HM146667   4.632   1.729   2.641  0.7662 -2.4570 -1.0664
18374THY    HM246668   4.457   1.715   2.639  0.3043 -0.1176 -0.0844
18374THY    HM346669   4.537   1.878   2.631  0.3148  1.9007 -0.4195
18374THY    CA646670   4.459   1.680   2.376 -0.2564  0.2047 -0.0243
18374THY    HA646671   4.372   1.639   2.427 -0.9329  0.1488  1.2837
18375THY      O46672   7.989   0.855   5.816  0.3025  0.0970 -0.2961
18375THY     HO46673   7.942   0.852   5.901 -0.7386 -0.4720 -0.6822
18375THY    CA146674   8.064   0.968   5.813 -0.9007 -0.2570 -0.2595
18375THY    CA246675   8.175   0.986   5.726 -0.5886  0.0150 -0.4513
18375THY    CP146676   8.213   0.881   5.622 -0.4405  0.7563 -0.1669
18375THY    HP146677   8.166   0.786   5.653 -1.6051  0.9371  0.4526
18375THY    CP246678   8.364   0.850   5.616 -0.3071  0.7435  0.0505
18375THY    HP246679   8.431   0.935   5.598 -0.3494 -0.2986 -0.1200
18375THY    HP346680   8.377   0.793   5.523 -0.9902 -0.6867  2.1368
18375THY    HP446681   8.402   0.798   5.705  0.3410 -0.0668 -0.9046
18375THY    CP346682   8.156   0.906   5.480 -0.4726  0.0222 -0.0188
18375THY    HP546683   8.176   0.823   5.411  1.2117  1.3968 -0.8012
18375THY    HP646684   8.187   1.000   5.433 -2.7071  0.2163  0.8818
18375THY    HP746685   8.047   0.911   5.489 -0.5952 -0.4825 -1.2626
18375THY    CA346686   8.241   1.109   5.717 -0.1917  0.2341  0.1108
18375THY    HA346687   8.331   1.116   5.655 -0.4873 -0.2026  0.1153
18375THY    CA446688   8.192   1.215   5.795 -0.0154  0.2322 -0.4544
18375THY    HA446689   8.221   1.318   5.776  0.1856 -1.7589 -0.8226
18375THY    CA546690   8.091   1.185   5.888 -0.3947 -0.1113 -1.2441
18375THY    CM146691   8.037   1.303   5.970  1.1259  0.5988 -0.8315
18375THY    HM146692   7.949   1.277   6.030  0.3478 -0.4562 -0.6893
18375THY    HM246693   8.012   1.386   5.903  0.9604 -0.3864 -1.6600
18375THY    HM346694   8.119   1.351   6.024  0.3952 -2.1372  4.2147
18375THY    CA646695   8.025   1.069   5.903 -0.5195  0.5632  0.7053
18375THY    HA646696   7.944   1.054   5.973 -0.6257  0.6878  1.7582
18376THY      O46697   6.559   5.001   3.850  0.2992  0.0774 -0.2639
18376THY     HO46698   6.505   5.055   3.790  1.1755 -0.1355  0.4072
18376THY    CA146699   6.661   5.077   3.904  0.6915  0.5708  0.0011
18376THY    CA246700   6.775   5.018   3.952  0.0813 -0.6373 -0.0593
18376THY    CP146701   6.794   4.873   3.927  0.7240  0.8995 -0.2908
18376THY    HP146702   6.702   4.819   3.904  1.7521  1.3195 -2.3039
18376THY    CP246703   6.849   4.798   4.052 -0.0764  0.5519  0.8436
18376THY    HP246704   6.880   4.695   4.030 -0.2443  2.5739  0.3330
18376THY    HP346705   6.777   4.801   4.134  0.1387  0.7241  1.7236
18376THY    HP446706   6.945   4.839   4.085 -0.1426  3.4756 -1.1236
18376THY    CP346707   6.896   4.854   3.809  0.0559 -0.1653  0.7757
18376THY    HP546708   6.898   4.751   3.771  2.6288  3.0303 -0.5199
18376THY    HP646709   6.994   4.880   3.850  0.6428  0.1112 -1.5871
18376THY    HP746710   6.880   4.931   3.733  2.0330 -1.4135  0.0306
18376THY    CA346711   6.879   5.103   3.996  0.3104  0.9446  0.6962
18376THY    HA346712   6.968   5.068   4.048  0.9924 -0.2973  0.5311
18376THY    CA446713   6.856   5.236   4.004 -0.1057  0.3380 -0.0264
18376THY    HA446714   6.928   5.300   4.055 -2.5033 -0.3993  3.5279
18376THY    CA546715   6.738   5.291   3.951  0.5249 -0.5789  0.1121
18376THY    CM146716   6.713   5.439   3.964  0.2970 -0.8035 -0.2656
18376THY    HM146717   6.748   5.476   4.061  0.5112 -1.6912  1.9796
18376THY    HM246718   6.605   5.456   3.954  0.2003 -1.2439 -1.0672
18376THY    HM346719   6.768   5.490   3.884 -0.2730 -0.1006  1.5080
18376THY    CA646720   6.641   5.218   3.898  0.5055 -0.5554  0.2494
18376THY    HA646721   6.544   5.260   3.875  0.9252 -1.9510  0.4945
18377THY      O46722   7.615   7.666   7.663 -0.3859  0.3037 -0.2103
18377THY     HO46723   7.622   7.754   7.622  0.1644 -1.1257 -0.8888
18377THY    CA146724   7.612   7.580   7.556  0.4755 -0.6647 -0.6642
18377THY    CA246725   7.690   7.463   7.540  0.2851 -0.0290 -0.4791
18377THY    CP146726   7.810   7.438   7.624 -0.0956  1.1147 -0.7070
18377THY    HP146727   7.822   7.524   7.691  3.6130 -0.3314  0.0757
18377THY    CP246728   7.936   7.430   7.537 -0.0461  0.4558 -0.1987
18377THY    HP246729   8.005   7.369   7.596  0.0512 -0.6190 -1.1656
18377THY    HP346730   7.981   7.524   7.502  0.2473  0.4581 -0.3402
18377THY    HP446731   7.902   7.369   7.452 -3.4968  0.5793  1.3106
18377THY    CP346732   7.784   7.310   7.700  0.1055  0.3277  0.5486
18377THY    HP546733   7.858   7.292   7.779 -0.0252  0.0260 -1.5828
18377THY    HP646734   7.775   7.222   7.635 -2.2003  1.6584 -0.2926
18377THY    HP746735   7.687   7.306   7.752 -0.6421 -1.0191 -3.3092
18377THY    CA346736   7.650   7.372   7.437  1.0389  0.7610 -0.2000
18377THY    HA346737   7.687   7.271   7.422  0.7745  0.4608 -0.2526
18377THY    CA446738   7.538   7.406   7.349 -0.8756 -0.9689 -0.4222
18377THY    HA446739   7.505   7.343   7.267 -0.6322 -3.4209  2.3837
18377THY    CA546740   7.471   7.530   7.358  0.2327  0.1016 -0.1076
18377THY    CM146741   7.368   7.563   7.247  0.4334 -0.3350  0.6394
18377THY    HM146742   7.293   7.486   7.224 -1.2999  2.5769  1.2927
18377THY    HM246743   7.410   7.603   7.154 -1.1005 -0.7426  1.3781
18377THY    HM346744   7.316   7.645   7.299  0.8207  3.0585 -1.0835
18377THY    CA646745   7.505   7.610   7.471 -0.0645 -0.5755 -0.8421
18377THY    HA646746   7.451   7.704   7.477  0.4620  0.4160 -0.5944
18378THY      O46747   1.930   6.887   5.017  0.3217  0.1683  0.6544
18378THY     HO46748   2.017   6.850   4.994 -0.4986 -1.0122 -0.6538
18378THY    CA146749   1.955   6.994   5.092  0.7747  0.1670 -0.4294
18378THY    CA246750   1.856   7.041   5.182  0.2776 -0.7525 -0.8349
18378THY    CP146751   1.725   6.962   5.213 -0.0988 -0.5002 -0.3276
18378THY    HP146752   1.717   6.886   5.134 -1.8720 -0.7752  0.1013
18378THY    CP246753   1.598   7.046   5.192 -0.2472  0.3395 -0.2548
18378THY    HP246754   1.594   7.103   5.099 -1.1846  1.4645  1.6136
18378THY    HP346755   1.594   7.110   5.281  1.2173  1.1974 -1.2728
18378THY    HP446756   1.511   6.979   5.187 -0.5055 -0.5682  0.1390
18378THY    CP346757   1.730   6.886   5.343 -0.0328 -0.4242 -0.2197
18378THY    HP546758   1.786   6.935   5.424 -0.4254 -0.1643 -0.2016
18378THY    HP646759   1.783   6.793   5.320 -1.0652 -0.5727 -0.7812
18378THY    HP746760   1.625   6.866   5.367 -0.2402 -3.0811 -3.1208
18378THY    CA346761   1.883   7.154   5.265  0.1913  0.1492  0.2232
18378THY    HA346762   1.819   7.177   5.349  0.9179  0.9237 -0.4989
18378THY    CA446763   2.009   7.217   5.246 -0.0312 -0.0811  0.3040
18378THY    HA446764   2.045   7.292   5.315  0.0771 -0.4270  0.5747
18378THY    CA546765   2.104   7.177   5.149  0.7658  0.7813 -0.3201
18378THY    CM146766   2.232   7.249   5.142  0.5577 -0.7234 -0.5768
18378THY    HM146767   2.295   7.222   5.227  1.0329 -0.0718  2.2685
18378THY    HM246768   2.212   7.357   5.138 -1.1611  1.2283 -0.7702
18378THY    HM346769   2.286   7.231   5.048 -1.1691 -2.0025  0.6061
18378THY    CA646770   2.070   7.064   5.063 -0.1084 -0.5757 -1.0658
18378THY    HA646771   2.145   7.029   4.993  1.6440  1.3297 -1.2979
18379THY      O46772   6.024   3.992   2.763  0.2857  0.2068 -0.0210
18379THY     HO46773   6.047   3.939   2.841 -0.0880 -0.0754 -0.6125
18379THY    CA146774   5.996   4.116   2.810  0.0442  0.2860 -1.0624
18379THY    CA246775   5.939   4.218   2.731 -0.2689 -0.3657 -0.0894
18379THY    CP146776   5.916   4.202   2.580  0.2819 -0.6454  0.4771
18379THY    HP146777   5.956   4.104   2.553  1.2209  3.1352 -0.3499
18379THY    CP246778   5.982   4.310   2.493 -0.0509 -0.3971 -0.3838
18379THY    HP246779   5.904   4.368   2.443  0.7767  0.0357  1.1537
18379THY    HP346780   6.040   4.275   2.407  1.1061  0.3000 -0.2294
18379THY    HP446781   6.040   4.381   2.552  0.6451  0.2617 -1.4740
18379THY    CP346782   5.766   4.200   2.551  0.4256 -0.1317  0.5695
18379THY    HP546783   5.722   4.116   2.608 -1.3421  0.5155  1.8818
18379THY    HP646784   5.743   4.173   2.448 -2.1685  0.2150  1.1726
18379THY    HP746785   5.704   4.288   2.569 -1.7431  2.2471 -1.2701
18379THY    CA346786   5.900   4.337   2.794  0.0918  0.6555  0.0232
18379THY    HA346787   5.849   4.410   2.731  0.5071 -2.1676 -1.9735
18379THY    CA446788   5.911   4.353   2.935 -0.1920 -0.3105  0.1249
18379THY    HA446789   5.872   4.445   2.978 -0.1156 -1.6469  0.8123
18379THY    CA546790   5.972   4.248   3.004 -0.0753 -0.1989  0.1017
18379THY    CM146791   5.996   4.272   3.152  0.0912  1.0606  0.2536
18379THY    HM146792   6.073   4.350   3.158  2.4462  1.3846 -1.9542
18379THY    HM246793   6.036   4.180   3.199 -0.5039  0.5152 -0.2917
18379THY    HM346794   5.903   4.309   3.196 -1.0967 -1.2285  0.1415
18379THY    CA646795   6.007   4.131   2.946 -0.4402  0.4609  0.1452
18379THY    HA646796   6.046   4.052   3.010  1.5558  0.5119  1.1051
18380THY      O46797   3.147   1.793   2.646  0.0687  0.3274  0.5997
18380THY     HO46798   3.070   1.846   2.673 -1.2973  1.3419 -1.7750
18380THY    CA146799   3.226   1.847   2.548  0.8144 -0.7896  0.6582
18380THY    CA246800   3.319   1.769   2.479 -0.6189 -0.8013  0.6723
18380THY    CP146801   3.348   1.627   2.531 -0.8682  1.2445 -0.7861
18380THY    HP146802   3.302   1.617   2.630 -0.5118  1.3924 -0.9784
18380THY    CP246803   3.501   1.602   2.549  1.0411 -0.3137 -0.3501
18380THY    HP246804   3.541   1.605   2.447 -0.6489 -1.0298  3.4697
18380THY    HP346805   3.517   1.509   2.606 -0.8784 -1.6793 -1.6044
18380THY    HP446806   3.537   1.687   2.607 -1.4972  1.0900 -0.1256
18380THY    CP346807   3.276   1.525   2.454 -0.3681 -0.3498  1.1845
18380THY    HP546808   3.287   1.429   2.505  0.9906 -0.0471  1.4779
18380THY    HP646809   3.322   1.511   2.356 -0.9875 -0.3582 -1.1677
18380THY    HP746810   3.167   1.537   2.459 -0.7923  0.5052 -2.2384
18380THY    CA346811   3.376   1.826   2.359  0.0584  0.1500  0.0106
18380THY    HA346812   3.443   1.766   2.298 -1.1571 -0.6353 -0.5847
18380THY    CA446813   3.338   1.951   2.317  0.2217  0.1207 -0.1278
18380THY    HA446814   3.373   1.989   2.222  0.2828 -0.2909 -1.1824
18380THY    CA546815   3.244   2.025   2.390  0.4550  0.9320  0.3787
18380THY    CM146816   3.199   2.153   2.328  0.4839  0.0741 -0.4158
18380THY    HM146817   3.093   2.148   2.299  0.4506 -0.5286  2.1648
18380THY    HM246818   3.251   2.174   2.234  3.5947  1.9734  0.9941
18380THY    HM346819   3.212   2.228   2.407 -1.1713  0.8774 -0.9230
18380THY    CA646820   3.187   1.969   2.502  0.4936 -0.0290 -0.1569
18380THY    HA646821   3.102   2.017   2.549  0.9429  0.3581  0.2726
18381THY      O46822   7.660   8.471   5.820 -0.2621 -0.9125 -0.4700
18381THY     HO46823   7.627   8.485   5.911 -4.0107 -2.0468 -0.7820
18381THY    CA146824   7.756   8.381   5.835 -0.7005 -0.1243 -0.1131
18381THY    CA246825   7.813   8.318   5.725 -0.4741  0.4518 -0.2892
18381THY    CP146826   7.761   8.352   5.586 -0.0907 -0.6252 -0.2250
18381THY    HP146827   7.654   8.371   5.591  0.2020 -1.9672  2.1087
18381THY    CP246828   7.766   8.236   5.487 -0.2870 -0.1436 -0.1113
18381THY    HP246829   7.735   8.143   5.535 -0.9753  0.0732  0.2228
18381THY    HP346830   7.873   8.227   5.463 -0.6216 -2.9042  1.9271
18381THY    HP446831   7.712   8.260   5.394 -0.4868  0.0912  0.3587
18381THY    CP346832   7.842   8.481   5.542  0.2529  0.3095  0.0677
18381THY    HP546833   7.777   8.541   5.477  0.5599 -0.9432 -0.9153
18381THY    HP646834   7.914   8.438   5.472 -1.1842 -1.0227 -0.2963
18381THY    HP746835   7.884   8.536   5.627 -0.9309  1.1358 -0.2530
18381THY    CA346836   7.917   8.226   5.745 -0.8313  0.2354 -0.1578
18381THY    HA346837   7.968   8.178   5.661 -1.4104 -0.1881 -0.0480
18381THY    CA446838   7.968   8.204   5.872  0.5196  0.0547 -0.2310
18381THY    HA446839   8.057   8.143   5.880  1.5467 -3.7644  0.5321
18381THY    CA546840   7.909   8.274   5.980  0.5634 -0.2201  0.2511
18381THY    CM146841   7.957   8.241   6.106  0.2218 -0.0558 -0.1452
18381THY    HM146842   7.995   8.139   6.119  1.7597  1.3776  0.5559
18381THY    HM246843   7.879   8.262   6.181 -0.0966 -1.0299  2.6216
18381THY    HM346844   8.037   8.312   6.131  1.1829  0.9805 -1.5550
18381THY    CA646845   7.800   8.359   5.968 -0.3576  0.3822  0.1359
18381THY    HA646846   7.764   8.413   6.055  1.2672  0.5278  1.0703
18382THY      O46847   5.105   1.424   3.550 -0.6260  0.3370 -0.2889
18382THY     HO46848   5.119   1.410   3.455 -1.0327  0.1490  0.4900
18382THY    CA146849   5.134   1.309   3.616 -0.0997  0.9181 -0.8230
18382THY    CA246850   5.215   1.308   3.737 -0.5520 -0.5475 -0.7806
18382THY    CP146851   5.276   1.440   3.791 -0.5308 -0.3784  0.3619
18382THY    HP146852   5.268   1.510   3.708  0.8758  1.2216  2.5537
18382THY    CP246853   5.422   1.424   3.833 -0.0298  0.3438  0.4975
18382THY    HP246854   5.426   1.354   3.917 -2.6096 -1.1779 -1.6814
18382THY    HP346855   5.469   1.520   3.856  0.4141 -2.4731  1.0441
18382THY    HP446856   5.476   1.388   3.744  2.4069  2.6533 -2.0960
18382THY    CP346857   5.198   1.500   3.905 -0.1111  0.2681 -0.7369
18382THY    HP546858   5.250   1.594   3.924  1.8104 -1.1469 -1.4381
18382THY    HP646859   5.194   1.442   3.998 -1.4133 -1.0110 -2.8477
18382THY    HP746860   5.091   1.516   3.885 -0.8124  3.1701 -1.1549
18382THY    CA346861   5.247   1.184   3.796  0.0703 -0.2873 -0.0997
18382THY    HA346862   5.301   1.173   3.889  0.5120 -0.1617  2.4289
18382THY    CA446863   5.194   1.071   3.730 -0.2035  0.0275  0.3305
18382THY    HA446864   5.217   0.977   3.778 -0.9968  2.5645  1.3415
18382THY    CA546865   5.122   1.073   3.619 -0.0395  0.1633 -0.2269
18382THY    CM146866   5.077   0.945   3.547  0.1534 -0.1734  0.3906
18382THY    HM146867   5.056   0.963   3.441 -1.0919  0.0806  0.4904
18382THY    HM246868   4.981   0.917   3.592  0.8422  0.8671 -0.3597
18382THY    HM346869   5.147   0.863   3.569  0.6922 -3.2078 -0.0631
18382THY    CA646870   5.083   1.194   3.560 -0.1993  0.3923 -0.0137
18382THY    HA646871   5.023   1.197   3.469  0.1911  0.1275  2.4291
18383THY      O46872   9.119   7.067   2.585 -0.1766  0.4587 -0.2627
18383THY     HO46873   9.091   7.013   2.509 -0.9045 -0.7793  1.7556
18383THY    CA146874   9.015   7.053   2.664 -0.3671 -1.0850  0.0471
18383THY    CA246875   9.012   7.106   2.794  0.3236 -0.1289  0.4940
18383THY    CP146876   9.132   7.181   2.847 -0.6586  0.3345  0.0995
18383THY    HP146877   9.218   7.172   2.779 -0.0655  1.1176 -0.2638
18383THY    CP246878   9.183   7.123   2.978  0.0593 -0.7486 -0.2303
18383THY    HP246879   9.269   7.177   3.016  0.1536  0.9247 -1.4731
18383THY    HP346880   9.219   7.022   2.953  0.6573  1.1931 -0.5399
18383THY    HP446881   9.099   7.134   3.048  0.8103  0.0654  0.3450
18383THY    CP346882   9.106   7.330   2.849 -0.4945 -0.0151 -0.3479
18383THY    HP546883   9.197   7.375   2.891 -0.6018  0.3096 -0.4309
18383THY    HP646884   9.019   7.358   2.910 -0.3850  0.6418 -1.4010
18383THY    HP746885   9.089   7.379   2.753 -0.5763  0.5614  0.8029
18383THY    CA346886   8.893   7.094   2.864 -0.4046  0.5599 -0.3693
18383THY    HA346887   8.886   7.123   2.968 -1.4911  0.2956  0.3549
18383THY    CA446888   8.788   7.021   2.816 -0.2567  0.0678 -0.4435
18383THY    HA446889   8.696   7.010   2.872  0.4915  1.4427  0.1093
18383THY    CA546890   8.794   6.971   2.684 -0.6254 -0.0241 -0.3546
18383THY    CM146891   8.679   6.887   2.628  0.5341 -0.2638  0.1919
18383THY    HM146892   8.716   6.784   2.626  0.8782 -0.5476  0.3184
18383THY    HM246893   8.642   6.911   2.527  1.2451 -0.7459 -0.6957
18383THY    HM346894   8.593   6.887   2.696 -0.3177 -1.3017  1.1456
18383THY    CA646895   8.911   6.984   2.608  0.4571  0.1749 -0.4702
18383THY    HA646896   8.918   6.953   2.504  0.0133  0.0026 -0.0141
18384THY      O46897   1.864   6.299   7.502 -0.2630 -0.6512 -0.5684
18384THY     HO46898   1.878   6.256   7.588  0.9576 -0.5591  0.0001
18384THY    CA146899   1.774   6.228   7.428 -0.1753  0.7786 -0.3116
18384THY    CA246900   1.681   6.286   7.336 -0.7738  0.2807  0.3687
18384THY    CP146901   1.668   6.437   7.312 -0.4568 -0.4165 -0.5522
18384THY    HP146902   1.766   6.485   7.321 -0.2783 -1.3171 -0.7102
18384THY    CP246903   1.581   6.506   7.409 -0.3597  0.1077 -0.1313
18384THY    HP246904   1.545   6.436   7.486  0.1478 -2.3104 -3.3119
18384THY    HP346905   1.490   6.544   7.361  0.2755 -0.0522  1.2235
18384THY    HP446906   1.632   6.594   7.448  1.1400 -1.6208 -0.1822
18384THY    CP346907   1.645   6.476   7.165  1.3077 -0.2328 -1.0785
18384THY    HP546908   1.542   6.441   7.146  0.9039 -0.4606  0.1741
18384THY    HP646909   1.699   6.424   7.085 -1.5737 -1.9087 -1.7685
18384THY    HP746910   1.639   6.582   7.140 -0.6950 -1.7544 -1.4870
18384THY    CA346911   1.602   6.190   7.268 -0.3715  0.4091 -1.4877
18384THY    HA346912   1.527   6.235   7.204 -0.0458  1.0149 -0.0254
18384THY    CA446913   1.606   6.056   7.289 -0.6257 -0.4801  0.5456
18384THY    HA446914   1.540   5.983   7.243  1.0455 -3.0377  0.5352
18384THY    CA546915   1.685   6.007   7.391 -0.0246  0.6819  0.2232
18384THY    CM146916   1.686   5.857   7.412  0.0797 -0.7816  0.2638
18384THY    HM146917   1.594   5.812   7.373  3.0862 -3.5780 -4.2418
18384THY    HM246918   1.710   5.840   7.518 -1.2896 -0.2682  1.3192
18384THY    HM346919   1.761   5.818   7.342  1.5758 -0.1148  1.8003
18384THY    CA646920   1.772   6.091   7.456  0.0608  0.4366 -0.0516
18384THY    HA646921   1.833   6.052   7.537 -1.1623  1.5910  0.3702
18385THY      O46922   3.870   4.780   6.551 -0.2912 -0.4755 -0.0842
18385THY     HO46923   3.842   4.722   6.479  0.1886 -0.6841 -0.0675
18385THY    CA146924   3.754   4.787   6.621 -0.6701  0.0330 -0.2715
18385THY    CA246925   3.732   4.891   6.716 -0.3388  0.4782 -0.1913
18385THY    CP146926   3.840   4.991   6.763  0.0014  0.2067  0.0826
18385THY    HP146927   3.937   4.960   6.720 -0.2337  1.6525 -2.9851
18385THY    CP246928   3.866   4.971   6.911 -0.6155  0.1844 -0.1769
18385THY    HP246929   3.967   5.006   6.937 -0.8969  1.2287 -0.0897
18385THY    HP346930   3.859   4.863   6.928  0.9744  0.3930 -0.2830
18385THY    HP446931   3.803   5.029   6.980  2.0662  1.3212  1.6093
18385THY    CP346932   3.808   5.128   6.724 -0.2424 -0.3894  0.5418
18385THY    HP546933   3.801   5.125   6.614  0.9525 -0.4711  0.2715
18385THY    HP646934   3.883   5.204   6.743 -1.4923  1.5180  1.3652
18385THY    HP746935   3.710   5.153   6.768  0.5469  1.1477  1.0110
18385THY    CA346936   3.604   4.900   6.776  0.0915  0.0017 -0.6864
18385THY    HA346937   3.588   4.986   6.841  1.3425 -0.8069  0.1796
18385THY    CA446938   3.506   4.806   6.742  0.7497 -0.1263  0.5761
18385THY    HA446939   3.405   4.819   6.780  0.8694  0.4036 -0.0166
18385THY    CA546940   3.525   4.706   6.646 -0.3459 -0.1400 -0.9992
18385THY    CM146941   3.415   4.629   6.592 -0.1130 -0.1697 -0.2121
18385THY    HM146942   3.436   4.523   6.611 -3.1693  2.6697 -0.4738
18385THY    HM246943   3.398   4.651   6.486  1.6987  0.0053  2.4545
18385THY    HM346944   3.320   4.656   6.640  0.0018 -0.6623  1.1198
18385THY    CA646945   3.650   4.699   6.583  0.0044  0.0358 -0.4168
18385THY    HA646946   3.674   4.631   6.502 -1.6247 -0.9303  0.1112
18386THY      O46947   1.706   6.663   4.947  0.1898  0.7532 -0.4978
18386THY     HO46948   1.751   6.746   4.970 -1.8743  0.4711  0.7677
18386THY    CA146949   1.641   6.676   4.824  0.4079  0.2129  0.1956
18386THY    CA246950   1.547   6.585   4.776  0.1700 -0.8025 -0.7232
18386THY    CP146951   1.513   6.455   4.855  0.4565 -0.6677  0.3651
18386THY    HP146952   1.591   6.419   4.923 -1.9611  1.3687 -1.4371
18386THY    CP246953   1.509   6.341   4.749  0.5986 -1.0762  0.1026
18386THY    HP246954   1.590   6.343   4.676  1.4842 -0.1581 -0.7137
18386THY    HP346955   1.411   6.344   4.700 -0.6395  1.2530  1.0077
18386THY    HP446956   1.519   6.242   4.795  1.1560 -0.2586  0.5253
18386THY    CP346957   1.386   6.477   4.943  0.6681 -0.6920  0.0844
18386THY    HP546958   1.296   6.506   4.887  0.0269  1.1167  1.8126
18386THY    HP646959   1.402   6.563   5.009 -1.1904 -0.0565 -0.0205
18386THY    HP746960   1.363   6.379   4.987  0.1867 -1.6402 -0.2491
18386THY    CA346961   1.488   6.620   4.653  0.2994  0.3177  0.1758
18386THY    HA346962   1.412   6.552   4.615  0.2986 -0.2036  0.4646
18386THY    CA446963   1.527   6.734   4.580  0.6983  0.5077 -0.3175
18386THY    HA446964   1.478   6.759   4.486 -0.9676  1.7776  1.5279
18386THY    CA546965   1.615   6.827   4.640  0.6428 -0.4447  0.1268
18386THY    CM146966   1.657   6.940   4.559 -0.2878 -0.2230  0.3127
18386THY    HM146967   1.710   7.019   4.613  0.4756  0.6157 -0.7453
18386THY    HM246968   1.568   6.988   4.516  1.1659 -2.0939  1.4922
18386THY    HM346969   1.713   6.911   4.469  0.5103 -0.2487  1.8450
18386THY    CA646970   1.663   6.799   4.772 -0.9098  0.5443 -0.7146
18386THY    HA646971   1.735   6.868   4.818 -0.2633 -0.3015 -0.8068
18387THY      O46972   3.099   8.664   4.984  0.2347 -0.7184  0.1576
18387THY     HO46973   3.030   8.605   4.950 -0.4779 -0.1685  0.6511
18387THY    CA146974   3.024   8.750   5.054 -0.1525 -0.0696 -0.2437
18387THY    CA246975   3.056   8.787   5.182  0.0364  0.2892 -1.4182
18387THY    CP146976   3.171   8.728   5.263  0.1187 -0.1631 -0.1152
18387THY    HP146977   3.218   8.645   5.208  2.1667  0.4128  0.5891
18387THY    CP246978   3.124   8.658   5.398 -0.3444 -0.3777 -0.1148
18387THY    HP246979   3.196   8.598   5.454  0.3414 -1.5743 -0.4494
18387THY    HP346980   3.048   8.580   5.386 -0.4230  1.5183 -0.3724
18387THY    HP446981   3.090   8.731   5.472  1.4994  2.7792 -2.2175
18387THY    CP346982   3.279   8.830   5.303 -0.1383 -0.3270 -0.6132
18387THY    HP546983   3.296   8.908   5.228  3.7445  2.0299  1.0978
18387THY    HP646984   3.372   8.778   5.328 -0.7325 -0.5898 -1.8347
18387THY    HP746985   3.238   8.871   5.396 -1.2778 -0.7323 -0.7915
18387THY    CA346986   2.977   8.893   5.246  0.1066 -0.1299  0.4214
18387THY    HA346987   3.009   8.931   5.343  1.0497 -0.8429  1.5327
18387THY    CA446988   2.862   8.941   5.180  0.6306 -0.5932  0.5908
18387THY    HA446989   2.793   9.011   5.226  1.9356 -0.8031  2.0877
18387THY    CA546990   2.815   8.884   5.059 -0.3577 -0.2380 -0.1295
18387THY    CM146991   2.692   8.928   4.996 -0.5129  0.8810  0.0815
18387THY    HM146992   2.684   9.035   4.974 -2.1951  0.3761 -0.1174
18387THY    HM246993   2.605   8.904   5.058  0.4880  1.8505 -1.1650
18387THY    HM346994   2.677   8.881   4.898 -0.9259  0.9811  0.0009
18387THY    CA646995   2.902   8.794   4.994 -0.3112  0.0171  0.1229
18387THY    HA646996   2.874   8.748   4.899 -0.7011 -0.0598  0.5138
18388THY      O46997   4.294   4.680   5.431 -0.2268  0.0002  0.2180
18388THY     HO46998   4.298   4.669   5.335 -0.8985 -0.1701  1.2252
18388THY    CA146999   4.415   4.693   5.483  0.2310  0.3353 -0.2740
18388THY    CA247000   4.429   4.778   5.590  0.1674  0.2092  0.1024
18388THY    CP147001   4.302   4.845   5.652 -1.0829  0.0209  0.4871
18388THY    HP147002   4.214   4.785   5.628  0.1288 -0.4260 -1.1734
18388THY    CP247003   4.284   4.989   5.605 -0.0851  0.0531 -0.3257
18388THY    HP247004   4.198   5.033   5.656  0.7921  1.8997 -0.6707
18388THY    HP347005   4.253   4.990   5.500 -1.3140  0.3386  2.9348
18388THY    HP447006   4.381   5.039   5.619 -0.0141  1.5842 -0.8342
18388THY    CP347007   4.298   4.859   5.810  0.0907  0.1331 -0.4574
18388THY    HP547008   4.362   4.944   5.835  0.1507  0.4884 -0.6044
18388THY    HP647009   4.342   4.771   5.858  0.7951 -0.3647 -0.3773
18388THY    HP747010   4.194   4.878   5.840 -0.3804  0.4938 -3.2555
18388THY    CA347011   4.555   4.812   5.638 -0.8830  0.4886 -0.2704
18388THY    HA347012   4.571   4.892   5.709  0.7797  0.5806 -0.6340
18388THY    CA447013   4.668   4.745   5.583 -0.1703  0.2245 -0.7273
18388THY    HA447014   4.767   4.773   5.619 -0.8438  1.3816  0.2725
18388THY    CA547015   4.658   4.653   5.486  0.8525  0.0412 -0.2776
18388THY    CM147016   4.777   4.588   5.423 -0.3373 -0.0154  0.1778
18388THY    HM147017   4.748   4.522   5.341  1.5509  0.5627 -1.4771
18388THY    HM247018   4.824   4.521   5.496 -0.1788 -0.5612 -0.3164
18388THY    HM347019   4.849   4.666   5.394  0.3732  0.4923 -0.2771
18388THY    CA647020   4.528   4.628   5.434 -0.0804  0.5984  0.5505
18388THY    HA647021   4.515   4.560   5.350  0.0649  0.6685  0.4371
18389THY      O47022   4.987   0.261   3.887 -0.0150  0.4310  0.3218
18389THY     HO47023   4.980   0.198   3.960 -0.5321  0.5600  0.5232
18389THY    CA147024   4.862   0.292   3.846  0.3724  0.4399 -0.0707
18389THY    CA247025   4.821   0.424   3.824  0.3747 -0.0420 -0.9704
18389THY    CP147026   4.938   0.523   3.820  0.0895 -0.8124  0.4379
18389THY    HP147027   5.022   0.476   3.769  0.5953 -0.1208  0.5841
18389THY    CP247028   4.983   0.578   3.949 -0.0763 -0.0418  0.0016
18389THY    HP247029   4.901   0.617   4.009  2.3303  1.1798  3.7194
18389THY    HP347030   5.050   0.661   3.926 -1.3125 -0.0197  1.0243
18389THY    HP447031   5.036   0.497   4.001 -0.8263 -0.5539 -0.8399
18389THY    CP347032   4.899   0.647   3.727 -0.2204  0.7516  0.3697
18389THY    HP547033   4.823   0.713   3.771 -1.0549  0.7681 -0.5844
18389THY    HP647034   4.861   0.611   3.631  2.6254 -1.7399  3.4587
18389THY    HP747035   4.983   0.711   3.698 -1.3840 -1.1469  1.1175
18389THY    CA347036   4.686   0.456   3.812 -0.4308  0.2464 -0.6841
18389THY    HA347037   4.644   0.552   3.786 -1.8417  0.0130 -1.3380
18389THY    CA447038   4.592   0.349   3.808  0.1830  0.3063 -0.4159
18389THY    HA447039   4.486   0.368   3.792  0.4994  0.6283  1.8766
18389THY    CA547040   4.629   0.217   3.826 -0.0465  0.5071 -0.8991
18389THY    CM147041   4.523   0.107   3.822  0.4756 -0.6088  0.1999
18389THY    HM147042   4.448   0.110   3.743 -0.8972  0.5692 -1.1522
18389THY    HM247043   4.463   0.115   3.914 -0.7572 -1.4987  1.6548
18389THY    HM347044   4.578   0.013   3.808  0.3244 -2.1221  0.3161
18389THY    CA647045   4.766   0.193   3.839 -0.7940  0.2512  0.4502
18389THY    HA647046   4.798   0.090   3.853 -1.8932 -2.6328 -0.3842
18390THY      O47047   8.727   0.725   7.345 -0.1564  0.0182  0.3568
18390THY     HO47048   8.811   0.702   7.302 -1.2457 -1.6674 -0.6836
18390THY    CA147049   8.671   0.608   7.355  0.0693  0.8584 -0.7250
18390THY    CA247050   8.538   0.581   7.387  0.7526 -0.4972 -0.4222
18390THY    CP147051   8.431   0.687   7.391 -0.0537 -0.7449  0.0432
18390THY    HP147052   8.466   0.781   7.347 -1.3979 -3.0702 -0.4686
18390THY    CP247053   8.386   0.718   7.534  0.2527 -0.2043  0.5606
18390THY    HP247054   8.475   0.737   7.596 -0.1101  0.2333  0.8565
18390THY    HP347055   8.341   0.630   7.582 -0.5302  0.4460  1.2937
18390THY    HP447056   8.323   0.807   7.534 -1.0590 -1.6279 -0.3328
18390THY    CP347057   8.309   0.653   7.309 -0.2150 -0.3080 -0.6764
18390THY    HP547058   8.338   0.627   7.206 -0.6377 -0.6207  0.0416
18390THY    HP647059   8.224   0.722   7.316  0.1095 -0.8620 -0.2027
18390THY    HP747060   8.265   0.557   7.337 -1.4719 -3.5475 -1.1889
18390THY    CA347061   8.495   0.444   7.418  0.7293  0.0939  0.4665
18390THY    HA347062   8.398   0.418   7.460  1.0056  0.0141 -0.7469
18390THY    CA447063   8.591   0.340   7.400 -0.2509  0.2681  0.1659
18390THY    HA447064   8.575   0.235   7.423  2.1978 -0.4317 -0.4170
18390THY    CA547065   8.722   0.369   7.369 -0.5869 -0.4401  0.4416
18390THY    CM147066   8.826   0.264   7.358  0.5230  0.3511 -0.0839
18390THY    HM147067   8.828   0.201   7.448  1.4966  0.2918 -0.1527
18390THY    HM247068   8.925   0.308   7.346 -0.0411 -1.1591  0.8286
18390THY    HM347069   8.798   0.196   7.276 -0.7881  2.4308 -2.2463
18390THY    CA647070   8.763   0.502   7.344  0.3879 -0.5016  0.2338
18390THY    HA647071   8.867   0.517   7.318  0.2805 -0.1616  1.7714
18391THY      O47072   1.969   0.408   4.730 -0.1275 -0.1038 -0.0969
18391THY     HO47073   1.883   0.449   4.710  1.6946 -1.7192  3.4149
18391THY    CA147074   2.030   0.380   4.612  0.0827  0.5641  0.4055
18391THY    CA247075   2.161   0.335   4.608  0.6088 -0.2405 -0.3409
18391THY    CP147076   2.230   0.312   4.745 -0.7466 -0.1651 -0.0647
18391THY    HP147077   2.188   0.379   4.821 -2.3922 -0.6853 -0.4512
18391THY    CP247078   2.382   0.346   4.737  0.1158  0.0334  1.1222
18391THY    HP247079   2.431   0.269   4.676 -1.8425 -1.7955  1.2502
18391THY    HP347080   2.430   0.355   4.835  0.0724 -0.0665  2.6400
18391THY    HP447081   2.381   0.443   4.686 -3.2064  0.8273  1.6500
18391THY    CP347082   2.216   0.167   4.792 -0.3745 -0.2124 -0.2003
18391THY    HP547083   2.267   0.158   4.889  0.4695 -0.3332  2.3326
18391THY    HP647084   2.269   0.093   4.731 -0.9564  1.1925 -1.8148
18391THY    HP747085   2.109   0.143   4.789 -0.0415 -2.6523 -1.7814
18391THY    CA347086   2.232   0.322   4.484 -0.1324 -0.0716  0.0821
18391THY    HA347087   2.335   0.286   4.482 -0.3306  1.9316 -0.6758
18391THY    CA447088   2.160   0.339   4.362 -0.1918  0.0469  0.3012
18391THY    HA447089   2.214   0.325   4.269  2.3197  1.6728 -1.5654
18391THY    CA547090   2.028   0.377   4.368 -0.3179 -0.2896 -0.0826
18391THY    CM147091   1.960   0.407   4.235 -0.9950 -0.1598 -0.8067
18391THY    HM147092   1.997   0.331   4.165 -1.1701 -2.3582  1.0397
18391THY    HM247093   1.982   0.507   4.196 -1.0781  2.2716  0.2221
18391THY    HM347094   1.851   0.396   4.243 -1.0908  1.1818  0.6951
18391THY    CA647095   1.963   0.401   4.494  0.2635  0.3386 -0.0712
18391THY    HA647096   1.862   0.440   4.493  0.4128  0.8144  0.3308
18392THY      O47097   7.081   2.280   6.842 -0.3775 -0.0368  0.0268
18392THY     HO47098   7.024   2.231   6.904 -3.7387 -1.9258  1.2061
18392THY    CA147099   7.095   2.204   6.735  0.0235 -0.1758  0.4321
18392THY    CA247100   7.150   2.073   6.746 -0.4269  0.1061 -0.1379
18392THY    CP147101   7.182   2.015   6.886  0.2328 -0.2976 -0.2597
18392THY    HP147102   7.118   2.056   6.965  2.1738  1.8506 -1.1485
18392THY    CP247103   7.320   2.063   6.930  0.2328 -0.0643  0.5873
18392THY    HP247104   7.396   2.046   6.853  2.3734  2.1438 -0.5368
18392THY    HP347105   7.335   1.997   7.017  0.1443 -0.1732  0.4241
18392THY    HP447106   7.320   2.169   6.958  2.4287  0.4241  0.5092
18392THY    CP347107   7.156   1.863   6.887 -0.2987  0.4332  0.2296
18392THY    HP547108   7.131   1.833   6.989  1.6317  0.5219 -1.2767
18392THY    HP647109   7.242   1.803   6.856 -0.5511 -0.2428  0.2044
18392THY    HP747110   7.077   1.827   6.819  0.4237 -0.0793 -0.4179
18392THY    CA347111   7.173   2.001   6.640  0.3435  0.1725  0.4159
18392THY    HA347112   7.225   1.906   6.644  0.7917 -0.9745  0.5951
18392THY    CA447113   7.126   2.045   6.516  0.7633 -0.1748  0.3047
18392THY    HA447114   7.142   1.981   6.430  0.5594 -0.0210  0.0474
18392THY    CA547115   7.069   2.175   6.502  0.0198 -0.3588 -0.8287
18392THY    CM147116   7.009   2.214   6.369  0.4157  0.5248  0.3170
18392THY    HM147117   7.034   2.313   6.330  1.0446  1.5052  0.5584
18392THY    HM247118   6.900   2.224   6.384  0.3121 -0.3708  0.6455
18392THY    HM347119   7.021   2.144   6.286 -1.7888 -0.6870  1.2755
18392THY    CA647120   7.063   2.255   6.612 -0.2793 -0.2447 -0.8915
18392THY    HA647121   7.024   2.356   6.619 -0.5923  1.8414 -1.1054
18393THY      O47122   3.343   5.935   7.377  0.2376  0.1264  0.2052
18393THY     HO47123   3.268   5.984   7.416 -1.3464  1.3509 -2.9500
18393THY    CA147124   3.300   5.938   7.244 -0.6547 -0.4823  0.3348
18393THY    CA247125   3.336   5.835   7.154  0.8493 -0.3401  0.0349
18393THY    CP147126   3.422   5.720   7.207 -0.2482  0.0474  0.4108
18393THY    HP147127   3.505   5.777   7.252  0.2140  0.3466 -0.4825
18393THY    CP247128   3.479   5.637   7.092 -0.3068  0.3335  0.5369
18393THY    HP247129   3.566   5.580   7.128 -0.7977  1.2350  0.3414
18393THY    HP347130   3.514   5.702   7.011 -1.1002  0.7644  1.5261
18393THY    HP447131   3.398   5.577   7.049 -0.2801 -0.1057  0.8099
18393THY    CP347132   3.348   5.626   7.306 -0.5022  0.0494 -0.1813
18393THY    HP547133   3.313   5.669   7.401 -2.5219 -1.1509  0.9536
18393THY    HP647134   3.415   5.540   7.321 -0.9240  2.5932 -0.1424
18393THY    HP747135   3.254   5.597   7.258 -2.1235  1.1999  2.7508
18393THY    CA347136   3.275   5.839   7.026 -0.6550 -0.2402  0.5452
18393THY    HA347137   3.302   5.772   6.946 -0.5198 -1.6694  2.2292
18393THY    CA447138   3.197   5.947   6.982  0.0272 -0.3838 -0.0843
18393THY    HA447139   3.131   5.939   6.896  0.2769 -0.7541  1.4675
18393THY    CA547140   3.175   6.054   7.070  0.3569 -0.2914  0.2106
18393THY    CM147141   3.089   6.170   7.031  0.0034 -0.2103  0.0329
18393THY    HM147142   2.989   6.126   7.016 -0.0999  0.9585 -0.1748
18393THY    HM247143   3.115   6.220   6.938 -1.2170 -0.2910  0.5598
18393THY    HM347144   3.101   6.251   7.104  0.6082 -0.9257  0.6020
18393THY    CA647145   3.227   6.043   7.200  0.2163  0.1486  0.1956
18393THY    HA647146   3.214   6.125   7.271  0.3115  1.5088 -0.9197
18394THY      O47147   4.898   2.578   4.198  0.0801 -0.8122  0.2207
18394THY     HO47148   4.848   2.659   4.177  0.7674  0.0149  0.8696
18394THY    CA147149   4.886   2.575   4.330 -1.0369  0.3600 -0.1923
18394THY    CA247150   4.980   2.505   4.404  0.0462  0.2499  0.3243
18394THY    CP147151   5.088   2.426   4.336 -0.4333 -0.1006 -0.4457
18394THY    HP147152   5.055   2.374   4.245  0.9212 -0.9947  0.2130
18394THY    CP247153   5.129   2.310   4.424  0.1061  0.5240 -0.1650
18394THY    HP247154   5.037   2.275   4.472 -2.1950 -2.0974  1.8494
18394THY    HP347155   5.208   2.339   4.493  0.4609 -0.4525  1.2865
18394THY    HP447156   5.182   2.233   4.366  1.7090  2.2170 -0.3872
18394THY    CP347157   5.213   2.521   4.310  0.3908  0.4277  0.1044
18394THY    HP547158   5.240   2.569   4.404 -0.2395  0.6629  0.0022
18394THY    HP647159   5.180   2.599   4.240 -0.2187 -0.8803 -1.2625
18394THY    HP747160   5.296   2.462   4.269 -1.9717 -0.0619 -3.1670
18394THY    CA347161   4.973   2.516   4.545 -0.1685  0.1072  0.3529
18394THY    HA347162   5.039   2.462   4.612 -3.1570  3.3398  0.3077
18394THY    CA447163   4.873   2.597   4.603 -0.1334 -0.5083 -0.0752
18394THY    HA447164   4.871   2.598   4.711 -0.0088 -0.5093  0.2416
18394THY    CA547165   4.776   2.657   4.530 -0.3055  0.4113  0.3250
18394THY    CM147166   4.663   2.732   4.587 -0.4542 -0.3182 -0.2426
18394THY    HM147167   4.668   2.837   4.555 -1.8251  0.3260  0.0413
18394THY    HM247168   4.658   2.722   4.696  2.8469  0.0977  1.3627
18394THY    HM347169   4.576   2.678   4.546  0.4813 -0.4578 -1.7151
18394THY    CA647170   4.789   2.654   4.389  0.0507  0.3338 -0.6792
18394THY    HA647171   4.727   2.717   4.326 -1.4682  0.0007 -2.4103
18395THY      O47172   5.429   3.240   6.986  0.3957  0.3456 -0.1881
18395THY     HO47173   5.444   3.171   7.053 -1.0791 -1.4394 -2.4060
18395THY    CA147174   5.453   3.190   6.865 -0.4056  0.1537 -0.4451
18395THY    CA247175   5.457   3.269   6.754  0.2951  0.5006 -0.6216
18395THY    CP147176   5.430   3.419   6.763 -0.5002 -0.3947 -0.2004
18395THY    HP147177   5.378   3.445   6.856 -2.4552 -1.8181  1.2833
18395THY    CP247178   5.325   3.449   6.660 -0.2319 -0.2544 -0.5688
18395THY    HP247179   5.367   3.445   6.560  0.9427  0.1737  0.5763
18395THY    HP347180   5.284   3.549   6.681  1.1630 -1.2690  0.2444
18395THY    HP447181   5.236   3.384   6.657 -1.1045 -0.8782  0.6195
18395THY    CP347182   5.554   3.516   6.738  0.4659  0.4685 -0.5845
18395THY    HP547183   5.598   3.554   6.831 -0.8119  0.3774  1.2824
18395THY    HP647184   5.524   3.610   6.689 -0.4415  1.9385 -0.0658
18395THY    HP747185   5.636   3.469   6.683  1.0480  0.6238  0.2330
18395THY    CA347186   5.481   3.207   6.631  0.9020  0.1715 -0.1005
18395THY    HA347187   5.495   3.271   6.544  0.8802 -0.0233 -0.3558
18395THY    CA447188   5.486   3.069   6.619  0.3890 -0.4445  0.1190
18395THY    HA447189   5.515   3.020   6.526  1.7810  0.0926 -0.1501
18395THY    CA547190   5.489   2.993   6.736 -0.1993  0.2121 -0.5466
18395THY    CM147191   5.524   2.848   6.725 -0.9361 -0.3066  0.1492
18395THY    HM147192   5.437   2.781   6.732  1.0238 -2.3878 -2.8705
18395THY    HM247193   5.594   2.840   6.809  0.5567 -1.4539  0.8778
18395THY    HM347194   5.578   2.819   6.634 -1.7638 -0.3804 -1.2269
18395THY    CA647195   5.465   3.050   6.856  0.3285  0.2720  0.2517
18395THY    HA647196   5.459   2.976   6.936  0.1641 -1.0897 -1.2434
18396THY      O47197   1.033   3.215   6.116  0.3337  0.1792 -0.1288
18396THY     HO47198   1.051   3.302   6.075 -0.2480 -1.5276 -0.7674
18396THY    CA147199   1.150   3.179   6.170  0.7041  0.0482  0.1409
18396THY    CA247200   1.161   3.062   6.253  0.2705 -0.7027 -0.2155
18396THY    CP147201   1.039   2.982   6.282 -0.0579 -0.9862 -0.8829
18396THY    HP147202   0.957   3.005   6.212 -1.3837  0.9148  0.4561
18396THY    CP247203   0.997   3.000   6.435  0.4679  0.8570 -0.3067
18396THY    HP247204   0.913   2.933   6.458 -0.8640  2.5713  1.7973
18396THY    HP347205   0.966   3.105   6.444  0.0428  0.1418 -0.3661
18396THY    HP447206   1.076   2.973   6.507 -0.3190  1.8060 -0.1463
18396THY    CP347207   1.072   2.833   6.256  0.4878 -0.2810  0.0590
18396THY    HP547208   1.136   2.792   6.335  1.7453 -0.5957  1.3603
18396THY    HP647209   1.108   2.828   6.153 -2.1358 -1.4479  2.5198
18396THY    HP747210   0.975   2.781   6.248  0.7655 -1.2066 -0.3299
18396THY    CA347211   1.284   3.020   6.297  0.1200  0.2774  0.1116
18396THY    HA347212   1.300   2.937   6.366  1.2982  0.7610  0.7151
18396THY    CA447213   1.397   3.088   6.248 -0.0166 -0.0759  0.8332
18396THY    HA447214   1.498   3.056   6.275 -1.5140  0.5949 -4.1501
18396THY    CA547215   1.386   3.201   6.164 -0.2857 -0.3060  0.2635
18396THY    CM147216   1.502   3.278   6.135 -0.6920  0.1872 -0.6456
18396THY    HM147217   1.597   3.234   6.170  0.6613 -2.3747  0.0774
18396THY    HM247218   1.491   3.376   6.183  2.7852  3.2630 -1.5160
18396THY    HM347219   1.510   3.300   6.028  2.2576  0.0190 -1.9338
18396THY    CA647220   1.263   3.248   6.125 -0.2128  0.0315  0.3352
18396THY    HA647221   1.253   3.326   6.050 -0.6051 -0.2528  0.0196
18397THY      O47222   1.374   8.263   4.632  0.5250 -0.0500  0.4655
18397THY     HO47223   1.311   8.325   4.673 -0.4084  1.0944 -1.1516
18397THY    CA147224   1.298   8.145   4.617 -0.0075  1.1133 -0.6979
18397THY    CA247225   1.342   8.040   4.529  0.0977 -0.7578 -0.0013
18397THY    CP147226   1.476   8.049   4.458  0.9277 -0.7021 -0.1460
18397THY    HP147227   1.521   8.145   4.486  0.7671 -0.8817 -0.0164
18397THY    CP247228   1.456   8.052   4.306 -0.0482  0.2531 -0.5666
18397THY    HP247229   1.434   7.954   4.262  1.1608 -2.1599  0.1616
18397THY    HP347230   1.546   8.081   4.251  0.1949 -0.0187 -1.7941
18397THY    HP447231   1.381   8.130   4.292  2.2612  1.1247  1.9647
18397THY    CP347232   1.563   7.931   4.493 -0.1415 -0.3222 -0.2753
18397THY    HP547233   1.570   7.912   4.601  3.1442  0.3652  3.6531
18397THY    HP647234   1.665   7.956   4.463 -0.0262 -0.7937 -1.2412
18397THY    HP747235   1.533   7.842   4.436 -0.3483  0.5997 -0.8074
18397THY    CA347236   1.259   7.930   4.509 -0.0048  0.4856  0.3081
18397THY    HA347237   1.293   7.844   4.453 -0.8626 -0.7498  0.7420
18397THY    CA447238   1.137   7.926   4.576  0.0479 -0.5309 -0.5487
18397THY    HA447239   1.073   7.839   4.565 -0.1088  0.3898 -0.5609
18397THY    CA547240   1.094   8.024   4.666 -0.4834  0.4345  0.4920
18397THY    CM147241   0.961   8.027   4.730 -0.5809 -0.6306 -0.0705
18397THY    HM147242   0.967   8.083   4.824  0.0394 -0.3456 -0.5968
18397THY    HM247243   0.927   7.927   4.761  1.5498 -1.1624 -1.0251
18397THY    HM347244   0.886   8.081   4.672 -0.3155  1.7677  3.1611
18397THY    CA647245   1.171   8.143   4.674 -0.5271 -0.7989  0.6322
18397THY    HA647246   1.132   8.216   4.744  1.3295 -1.7878  2.6987
18398THY      O47247   3.656   4.583   3.163  0.3299  0.3581  0.1372
18398THY     HO47248   3.679   4.598   3.070  0.3505  0.3603  0.1189
18398THY    CA147249   3.650   4.458   3.182 -0.3847  0.1072  0.3909
18398THY    CA247250   3.614   4.406   3.307 -0.4263 -0.5437  0.3118
18398THY    CP147251   3.563   4.512   3.405 -0.3077 -0.0699  0.4902
18398THY    HP147252   3.515   4.591   3.346 -0.3209  0.0683  0.5863
18398THY    CP247253   3.689   4.572   3.481  0.3271 -0.1918 -0.1203
18398THY    HP247254   3.719   4.501   3.559  2.1864 -0.9641 -0.2539
18398THY    HP347255   3.666   4.659   3.543 -0.7255  1.3086 -1.3950
18398THY    HP447256   3.774   4.588   3.414 -1.2278 -1.8101  1.8326
18398THY    CP347257   3.452   4.464   3.499 -0.1943 -0.3154 -0.4997
18398THY    HP547258   3.425   4.545   3.567  0.9263 -0.0349 -0.3415
18398THY    HP647259   3.488   4.377   3.555  0.0371  0.4125  0.0504
18398THY    HP747260   3.362   4.435   3.444 -1.6349  0.2871  2.5026
18398THY    CA347261   3.608   4.265   3.332  1.4606  0.6022 -0.3469
18398THY    HA347262   3.560   4.220   3.418 -1.2708 -2.9792 -5.2034
18398THY    CA447263   3.644   4.189   3.221  0.6216 -0.6318  0.0847
18398THY    HA447264   3.637   4.082   3.242 -0.6054  1.1803  0.4735
18398THY    CA547265   3.698   4.237   3.100  0.2686 -0.1385  0.1992
18398THY    CM147266   3.736   4.146   2.993  0.1728  0.2180  0.7454
18398THY    HM147267   3.801   4.192   2.918  0.4157  0.9084  1.5561
18398THY    HM247268   3.646   4.112   2.940  0.3372  0.0166  0.6300
18398THY    HM347269   3.785   4.053   3.022  0.0512  2.5785  1.3446
18398THY    CA647270   3.700   4.377   3.082  0.1444  0.2566 -0.1822
18398THY    HA647271   3.742   4.421   2.992  0.3989  0.8499  0.8000
18399THY      O47272   2.120   8.060   2.480  0.3136 -0.5188 -0.1891
18399THY     HO47273   2.078   8.140   2.517  0.2574  0.2999 -0.5924
18399THY    CA147274   2.020   7.986   2.424 -0.0810  0.4038 -0.0291
18399THY    CA247275   2.028   7.845   2.419 -0.2288  0.1566 -0.3201
18399THY    CP147276   2.159   7.774   2.463 -0.1144 -0.3600  0.4325
18399THY    HP147277   2.245   7.841   2.471 -0.6228  0.2254  1.0277
18399THY    CP247278   2.213   7.665   2.360 -0.4489 -0.4535  0.0136
18399THY    HP247279   2.280   7.709   2.285 -1.0544 -0.4128  1.0575
18399THY    HP347280   2.130   7.602   2.326 -0.5906 -0.6680  0.3109
18399THY    HP447281   2.273   7.595   2.418 -0.7734  0.3976  0.4116
18399THY    CP347282   2.131   7.710   2.601 -0.4032  0.3065  0.1676
18399THY    HP547283   2.216   7.652   2.638 -0.3088  1.3863  0.9575
18399THY    HP647284   2.045   7.642   2.596 -1.1836  0.0481  1.1273
18399THY    HP747285   2.113   7.781   2.683  1.1756  1.3202 -0.5621
18399THY    CA347286   1.914   7.778   2.375  0.2303 -0.1193 -0.5394
18399THY    HA347287   1.909   7.671   2.391  0.9315  0.2995 -0.5157
18399THY    CA447288   1.806   7.852   2.334  0.2234  0.2765 -0.1398
18399THY    HA447289   1.717   7.794   2.311 -0.0506  2.9517 -0.9493
18399THY    CA547290   1.792   7.991   2.337 -0.4565 -0.4306 -0.2679
18399THY    CM147291   1.671   8.067   2.290 -0.5217 -0.0301 -0.3967
18399THY    HM147292   1.688   8.175   2.300 -0.9710 -1.4948 -0.1711
18399THY    HM247293   1.583   8.042   2.350  0.4205  0.9996 -1.3377
18399THY    HM347294   1.657   8.043   2.184  0.4369 -0.4594  0.8043
18399THY    CA647295   1.910   8.056   2.378  0.2933 -0.5793 -0.4912
18399THY    HA647296   1.918   8.163   2.366  2.3220 -0.1742 -0.5562
18400THY      O47297   1.053   3.515   4.295  0.0412 -0.7370  0.2936
18400THY     HO47298   0.995   3.448   4.255  1.3951 -2.3052  0.0017
18400THY    CA147299   1.000   3.544   4.416 -0.2901 -0.1667 -0.3712
18400THY    CA247300   1.059   3.636   4.509  0.1101  0.1344  0.5389
18400THY    CP147301   1.178   3.726   4.477  0.1557 -0.0735  0.0918
18400THY    HP147302   1.206   3.703   4.374  2.9618  1.0427 -1.9666
18400THY    CP247303   1.294   3.690   4.567  0.6797  0.3795  0.5254
18400THY    HP247304   1.326   3.585   4.568  1.9688  2.9023  0.8583
18400THY    HP347305   1.273   3.721   4.670  1.7682  1.0604 -0.8979
18400THY    HP447306   1.384   3.747   4.540  0.9218 -0.2681 -0.1475
18400THY    CP347307   1.137   3.874   4.487  0.5533 -0.0109  0.4647
18400THY    HP547308   1.226   3.933   4.461  0.4650  1.1500  1.1454
18400THY    HP647309   1.105   3.909   4.586 -1.7651 -0.5046 -0.1114
18400THY    HP747310   1.065   3.897   4.407  1.3449 -0.5331  1.1999
18400THY    CA347311   0.992   3.653   4.636 -0.4555  0.5683  0.2159
18400THY    HA347312   1.034   3.724   4.707  0.6645 -0.4353  0.5798
18400THY    CA447313   0.890   3.557   4.670 -0.2414  0.0266  0.8163
18400THY    HA447314   0.854   3.549   4.772  1.8426  0.9974  2.9711
18400THY    CA547315   0.835   3.475   4.578  0.2353  0.0177 -0.5018
18400THY    CM147316   0.724   3.379   4.614 -0.4637  0.2673  0.0365
18400THY    HM147317   0.625   3.424   4.617 -0.1808  1.3243  0.6347
18400THY    HM247318   0.739   3.328   4.710  0.5558 -0.8138 -1.8460
18400THY    HM347319   0.716   3.293   4.546 -1.3889  0.6059 -0.1559
18400THY    CA647320   0.880   3.481   4.449 -0.4198 -0.3620 -0.1153
18400THY    HA647321   0.832   3.427   4.367 -2.8482  0.8280  0.0847
18401THY      O47322   8.996   1.497   6.995  0.4576  0.0218 -0.4550
18401THY     HO47323   8.987   1.462   6.905 -0.8260  0.1147 -0.4270
18401THY    CA147324   8.910   1.598   6.999  0.2582 -0.3569  0.1340
18401THY    CA247325   8.912   1.698   7.096  0.5522 -0.2036  0.3971
18401THY    CP147326   9.042   1.710   7.181  0.0850  0.1387  0.0795
18401THY    HP147327   9.089   1.611   7.190  0.4842 -3.0157 -0.1117
18401THY    CP247328   9.024   1.767   7.322 -1.0444 -0.0896 -0.5536
18401THY    HP247329   9.116   1.743   7.377 -0.6891  0.6706  2.2109
18401THY    HP347330   8.940   1.710   7.363 -0.6601 -0.4932 -1.4317
18401THY    HP447331   9.003   1.873   7.333 -2.7034  0.2703 -0.8966
18401THY    CP347332   9.153   1.793   7.112  1.0743  0.2038 -0.1942
18401THY    HP547333   9.114   1.894   7.095 -0.2617 -0.8258 -0.8508
18401THY    HP647334   9.187   1.750   7.017  0.3609  0.9575 -2.5789
18401THY    HP747335   9.230   1.800   7.189  1.5461 -0.1697 -1.0870
18401THY    CA347336   8.802   1.793   7.101 -0.0340  0.6521 -0.2720
18401THY    HA347337   8.810   1.877   7.169 -1.1647  1.6178 -0.9197
18401THY    CA447338   8.698   1.781   6.998 -0.3577 -0.3052  0.5235
18401THY    HA447339   8.609   1.843   6.992 -3.0410  0.1815 -2.9301
18401THY    CA547340   8.698   1.671   6.913 -0.1776 -0.4212 -0.7248
18401THY    CM147341   8.595   1.651   6.814 -0.1055  0.5013 -0.0544
18401THY    HM147342   8.509   1.718   6.829 -0.8162  0.9544 -1.0334
18401THY    HM247343   8.556   1.549   6.807 -0.7804  0.0680  0.2309
18401THY    HM347344   8.638   1.667   6.715 -1.4336 -0.2845 -1.0738
18401THY    CA647345   8.806   1.581   6.912  0.4991 -0.2194  0.0418
18401THY    HA647346   8.803   1.500   6.840  2.0405 -0.0079 -0.2228
18402THY      O47347   6.829   6.227   5.812  0.8521 -0.1048  0.0471
18402THY     HO47348   6.808   6.312   5.768  1.9562 -1.8775 -0.5387
18402THY    CA147349   6.772   6.234   5.940  0.3860  0.4288 -0.0126
18402THY    CA247350   6.767   6.119   6.015 -0.0403  0.3947  0.1749
18402THY    CP147351   6.837   5.988   5.962 -0.3448 -0.4510  1.4864
18402THY    HP147352   6.925   6.011   5.900 -0.8751 -1.9514 -0.2732
18402THY    CP247353   6.742   5.896   5.885  0.4678  0.3618  0.3957
18402THY    HP247354   6.790   5.806   5.845 -0.2681 -2.2252  1.0692
18402THY    HP347355   6.703   5.949   5.797  0.5508  1.2390  1.9782
18402THY    HP447356   6.648   5.880   5.938  0.4485  1.3874  3.3074
18402THY    CP347357   6.884   5.889   6.074 -0.3203 -0.1703 -0.5282
18402THY    HP547358   6.810   5.823   6.122 -2.1751  1.0565  2.2243
18402THY    HP647359   6.906   5.956   6.158 -1.3178  1.5227 -2.2161
18402THY    HP747360   6.971   5.831   6.043  0.7383 -0.6794  1.2386
18402THY    CA347361   6.712   6.122   6.149  0.6348  0.1757 -0.0266
18402THY    HA347362   6.701   6.031   6.208  2.0289 -0.4610 -0.6320
18402THY    CA447363   6.653   6.248   6.192  0.0213  0.1475  0.2668
18402THY    HA447364   6.601   6.244   6.287  1.1560  0.8643  1.6237
18402THY    CA547365   6.661   6.363   6.107  0.2668 -0.4870  0.5767
18402THY    CM147366   6.600   6.488   6.161 -0.0525  0.0766 -0.0640
18402THY    HM147367   6.663   6.520   6.245  0.4316 -1.0755  2.1864
18402THY    HM247368   6.499   6.464   6.198 -0.3056 -1.4686 -1.5515
18402THY    HM347369   6.585   6.571   6.091 -0.1180  1.7691  1.4123
18402THY    CA647370   6.714   6.353   5.978  0.6070 -0.2487  0.4403
18402THY    HA647371   6.704   6.442   5.917 -0.9652  1.4722  1.5223
18403THY      O47372   7.868   0.984   3.422  0.0454 -0.6412  0.0414
18403THY     HO47373   7.869   1.074   3.386 -1.5824  2.6352  1.5387
18403THY    CA147374   7.851   0.903   3.312  0.6167 -0.1244  0.0905
18403THY    CA247375   7.733   0.820   3.302 -0.5897 -0.2582  0.2741
18403THY    CP147376   7.632   0.816   3.423 -0.6357  0.1249  1.1572
18403THY    HP147377   7.648   0.909   3.479 -0.7473  2.1734  0.0109
18403THY    CP247378   7.645   0.700   3.527 -0.8462 -0.2651  0.1982
18403THY    HP247379   7.579   0.700   3.614 -0.1140  0.3030 -0.4499
18403THY    HP347380   7.747   0.694   3.566 -0.8096 -0.4139 -0.1914
18403THY    HP447381   7.637   0.612   3.462  1.3638 -1.1058  0.5643
18403THY    CP347382   7.490   0.823   3.360  0.1913  0.6164 -0.8932
18403THY    HP547383   7.490   0.896   3.279 -0.4188 -0.5007 -2.0889
18403THY    HP647384   7.415   0.841   3.438 -1.2591 -0.6791 -1.1741
18403THY    HP747385   7.464   0.722   3.327 -0.2081 -2.7344  0.1998
18403THY    CA347386   7.712   0.735   3.194 -0.0132  0.8678 -0.5087
18403THY    HA347387   7.632   0.662   3.196  0.6645  2.2758 -1.2525
18403THY    CA447388   7.801   0.752   3.079  0.2154  0.1894 -0.7767
18403THY    HA447389   7.799   0.698   2.985 -1.1064 -0.3213  0.0866
18403THY    CA547390   7.923   0.829   3.103  0.0511 -0.0463  0.9456
18403THY    CM147391   8.018   0.847   2.992 -0.5003  0.3713 -0.6716
18403THY    HM147392   7.962   0.859   2.899 -1.0499  1.0762  4.1366
18403THY    HM247393   8.091   0.766   2.981 -0.7760  1.2915 -1.0711
18403THY    HM347394   8.090   0.927   3.013 -0.4762  1.0804 -0.8706
18403THY    CA647395   7.943   0.905   3.219 -0.4141  0.6639 -0.2365
18403THY    HA647396   8.038   0.951   3.243 -1.5264  0.8754  2.0796
18404THY      O47397   8.816   1.456   2.701 -0.2822 -0.5277 -0.2526
18404THY     HO47398   8.830   1.449   2.797 -0.3036 -0.6305 -2.3472
18404THY    CA147399   8.773   1.581   2.669  0.0025 -0.1798  0.0957
18404THY    CA247400   8.856   1.695   2.664 -0.2686  0.2371 -0.8543
18404THY    CP147401   9.002   1.680   2.682 -0.5265  0.1567 -0.3178
18404THY    HP147402   9.027   1.574   2.672 -1.9770 -1.0797 -0.5824
18404THY    CP247403   9.050   1.740   2.813  0.0120 -0.6899 -0.2716
18404THY    HP247404   9.062   1.849   2.814  0.8785  2.8577 -0.2667
18404THY    HP347405   9.139   1.688   2.849  0.1568  0.3630  0.6633
18404THY    HP447406   8.980   1.721   2.895  0.0958 -0.8565 -1.3381
18404THY    CP347407   9.080   1.755   2.569 -0.2174 -0.4040 -1.2162
18404THY    HP547408   9.187   1.733   2.581  0.0409 -2.1185 -1.0264
18404THY    HP647409   9.078   1.863   2.582  1.4363 -0.9628 -1.0915
18404THY    HP747410   9.057   1.728   2.465  0.7252 -1.6984  2.4533
18404THY    CA347411   8.790   1.820   2.633  0.0890  0.0111 -0.4141
18404THY    HA347412   8.849   1.911   2.632 -1.6711  1.0486  0.7870
18404THY    CA447413   8.655   1.818   2.606 -0.0600 -0.5105 -0.5073
18404THY    HA447414   8.609   1.911   2.572  0.0083  1.3319  0.2462
18404THY    CA547415   8.579   1.700   2.607 -0.1796  0.7765 -0.3188
18404THY    CM147416   8.431   1.700   2.575  0.3527  0.0911  0.3607
18404THY    HM147417   8.387   1.798   2.595 -3.0412  0.0084 -1.0218
18404THY    HM247418   8.378   1.629   2.640 -0.0450  0.1253  0.6855
18404THY    HM347419   8.430   1.672   2.469  1.9574  0.0547  0.3611
18404THY    CA647420   8.639   1.583   2.645 -0.2754  0.1555 -0.0720
18404THY    HA647421   8.585   1.489   2.650  1.4770  1.6898 -1.0893
18405THY      O47422   9.131   6.060   6.947 -0.0020  0.1222 -0.6291
18405THY     HO47423   9.213   6.038   6.900  1.1982  1.9553 -0.2606
18405THY    CA147424   9.141   6.193   6.983  1.0068 -0.2993 -0.2085
18405THY    CA247425   9.086   6.233   7.107 -0.2474  0.3825  0.2513
18405THY    CP147426   9.043   6.127   7.213  0.5864  0.1200 -0.2820
18405THY    HP147427   9.070   6.023   7.192 -0.7111 -0.6194 -0.4995
18405THY    CP247428   8.886   6.114   7.211 -0.1855 -0.2495  0.1405
18405THY    HP247429   8.859   6.043   7.289  2.6920 -1.3562 -2.3824
18405THY    HP347430   8.854   6.062   7.120 -1.2189  0.9080 -1.2994
18405THY    HP447431   8.837   6.212   7.220  0.2664  1.8857  0.2048
18405THY    CP347432   9.079   6.157   7.360 -0.1834  0.0041 -0.8568
18405THY    HP547433   9.026   6.249   7.386 -0.7254  1.0190 -1.4471
18405THY    HP647434   9.187   6.176   7.365 -0.1456 -1.7610 -0.4378
18405THY    HP747435   9.057   6.074   7.428 -0.0809  0.8838 -0.1800
18405THY    CA347436   9.066   6.368   7.137  0.4546 -0.5801 -0.4276
18405THY    HA347437   9.018   6.400   7.229 -0.6038 -0.1158 -3.0488
18405THY    CA447438   9.108   6.465   7.046  0.1108  0.6833 -0.5465
18405THY    HA447439   9.104   6.573   7.059  3.3685 -2.9363  0.2692
18405THY    CA547440   9.172   6.420   6.929  0.2760  0.3389  0.7530
18405THY    CM147441   9.236   6.520   6.845 -0.2244 -0.1284 -0.4848
18405THY    HM147442   9.224   6.623   6.880  3.3246 -1.0308  0.3698
18405THY    HM247443   9.197   6.513   6.742 -0.7376  0.1291 -1.7171
18405THY    HM347444   9.344   6.503   6.833  0.3669 -0.2446  2.7534
18405THY    CA647445   9.188   6.285   6.893  0.7765 -0.7048 -0.3460
18405THY    HA647446   9.229   6.256   6.796 -1.3727 -2.1842  1.2187
18406THY      O47447   8.486   3.127   4.672  0.2130  0.5017  0.5257
18406THY     HO47448   8.454   3.219   4.669 -0.5255  1.7109  0.3346
18406THY    CA147449   8.610   3.144   4.638 -0.3042  0.2608  0.4570
18406THY    CA247450   8.686   3.035   4.592 -0.4305 -0.2063  0.4377
18406THY    CP147451   8.627   2.894   4.604 -0.1652  0.0822  0.0736
18406THY    HP147452   8.557   2.877   4.686 -1.5595 -1.0360  0.2553
18406THY    CP247453   8.739   2.791   4.613 -0.6310 -0.4711 -0.4873
18406THY    HP247454   8.819   2.809   4.686 -1.3106  0.0876  0.3230
18406THY    HP347455   8.796   2.773   4.521  0.6826  0.2292 -0.0143
18406THY    HP447456   8.700   2.692   4.641  4.0206  1.7198 -2.0100
18406THY    CP347457   8.543   2.869   4.475 -0.2872 -0.3695  0.4362
18406THY    HP547458   8.480   2.952   4.440  2.6677 -4.1487  1.3959
18406THY    HP647459   8.468   2.796   4.507 -2.4172 -2.5761  1.4938
18406THY    HP747460   8.590   2.829   4.385 -0.2179 -0.3074  0.3763
18406THY    CA347461   8.814   3.073   4.545 -0.4988  0.0674 -0.4545
18406THY    HA347462   8.887   3.001   4.510  0.4483 -1.4027  1.1314
18406THY    CA447463   8.858   3.208   4.538 -0.0171 -0.4495 -0.2079
18406THY    HA447464   8.957   3.234   4.502  0.3476  1.3902  1.2222
18406THY    CA547465   8.773   3.310   4.578 -0.8295 -0.0178  0.1404
18406THY    CM147466   8.808   3.455   4.545  0.0453 -0.7749 -0.6441
18406THY    HM147467   8.719   3.512   4.518 -1.2223  2.2612 -0.9761
18406THY    HM247468   8.888   3.467   4.470  1.2797  0.6262  0.2108
18406THY    HM347469   8.850   3.505   4.633  3.8450 -1.8914 -1.5268
18406THY    CA647470   8.654   3.276   4.636  0.1322 -0.7218 -0.5246
18406THY    HA647471   8.595   3.353   4.684 -0.7505  0.7997 -2.0740
18407THY      O47472   0.100   2.166   2.667 -0.6307 -0.0432 -0.4708
18407THY     HO47473   0.081   2.141   2.575  0.3788 -0.3624 -0.1571
18407THY    CA147474   0.170   2.062   2.722  0.1609 -0.4072 -0.4154
18407THY    CA247475   0.223   2.076   2.854  0.4257  0.5950 -0.1005
18407THY    CP147476   0.224   2.212   2.924  0.7999  0.3903 -0.6207
18407THY    HP147477   0.234   2.291   2.850 -1.1564  0.4807 -0.2334
18407THY    CP247478   0.344   2.227   3.019 -0.3290  0.4177  0.5674
18407THY    HP247479   0.336   2.162   3.107  0.0795  0.2040  0.2205
18407THY    HP347480   0.345   2.335   3.034  1.5520  3.2764  0.2859
18407THY    HP447481   0.440   2.202   2.972 -1.2264 -2.2276  1.7614
18407THY    CP347482   0.092   2.245   3.005  0.2597  0.5232 -0.6155
18407THY    HP547483   0.004   2.209   2.950 -0.1977  0.4694  0.5359
18407THY    HP647484   0.067   2.351   3.020 -0.3520  0.2035 -0.7104
18407THY    HP747485   0.098   2.206   3.107 -1.0279  0.7943 -0.1579
18407THY    CA347486   0.259   1.962   2.924 -0.0151  0.7617  0.0788
18407THY    HA347487   0.302   1.970   3.023  1.1946  0.4968 -2.2937
18407THY    CA447488   0.254   1.841   2.856  0.0416 -0.4035 -0.0517
18407THY    HA447489   0.286   1.750   2.905  0.2045  0.5654  0.5058
18407THY    CA547490   0.221   1.838   2.719 -0.6224  0.0153  0.2578
18407THY    CM147491   0.237   1.705   2.646 -0.4976 -0.6529 -0.4848
18407THY    HM147492   0.152   1.640   2.671 -2.0693 -1.5856  1.0955
18407THY    HM247493   0.330   1.652   2.670  0.2302  2.2141  1.8425
18407THY    HM347494   0.234   1.719   2.537  1.4743 -0.7528 -0.6527
18407THY    CA647495   0.176   1.948   2.647  0.4278 -0.2317  1.1775
18407THY    HA647496   0.156   1.949   2.540  3.0718 -0.8722 -1.3341
18408THY      O47497   7.957   2.128   1.899 -0.0707 -0.4189 -0.1686
18408THY     HO47498   8.037   2.102   1.849 -0.3385 -2.1342  1.9989
18408THY    CA147499   7.923   2.253   1.857  0.3566  0.0969  0.3724
18408THY    CA247500   7.839   2.324   1.937 -0.2025  0.0012  0.1563
18408THY    CP147501   7.758   2.264   2.055  0.5505 -0.0707  0.8861
18408THY    HP147502   7.809   2.173   2.090 -1.9590  3.5313  0.6267
18408THY    CP247503   7.614   2.235   1.989 -0.7057  0.0185 -0.2351
18408THY    HP247504   7.547   2.187   2.061 -1.2187 -0.9067 -0.9405
18408THY    HP347505   7.630   2.165   1.906 -0.0092  0.3922 -0.5268
18408THY    HP447506   7.577   2.333   1.956 -2.3679  1.3394 -0.3651
18408THY    CP347507   7.743   2.342   2.177  0.1159 -0.8171  0.3270
18408THY    HP547508   7.848   2.360   2.202  0.1685 -0.8591  0.0820
18408THY    HP647509   7.685   2.287   2.252  1.3457 -1.5417 -2.0747
18408THY    HP747510   7.691   2.438   2.164  0.9605  0.2233  0.9479
18408THY    CA347511   7.809   2.456   1.902 -0.3099 -0.3722 -0.4333
18408THY    HA347512   7.728   2.505   1.954  0.4150  0.1950  0.1800
18408THY    CA447513   7.871   2.507   1.782  0.3288 -0.5024  0.1660
18408THY    HA447514   7.859   2.611   1.753 -2.0349 -0.4889 -0.0336
18408THY    CA547515   7.960   2.428   1.707  0.1577 -0.2263 -0.6983
18408THY    CM147516   8.028   2.494   1.582 -0.3121  0.0830  0.1138
18408THY    HM147517   7.957   2.540   1.512  0.7913 -1.0933  0.0906
18408THY    HM247518   8.090   2.432   1.517 -1.8663 -1.2100 -0.1691
18408THY    HM347519   8.091   2.579   1.610  0.1832 -1.2143  0.1943
18408THY    CA647520   7.985   2.299   1.742  0.0981  0.3357 -0.1150
18408THY    HA647521   8.048   2.233   1.682 -1.5144  0.7934 -2.2003
18409THY      O47522   2.467   5.962   3.204  0.5769  0.5485 -0.2665
18409THY     HO47523   2.436   5.898   3.269 -0.1116  0.8886  0.3970
18409THY    CA147524   2.556   6.045   3.260  0.1743  0.1646  0.5496
18409THY    CA247525   2.581   6.168   3.207 -0.3575  0.0254  0.1069
18409THY    CP147526   2.514   6.214   3.075 -0.6176 -0.8451 -0.4209
18409THY    HP147527   2.424   6.157   3.053 -1.8628  0.4671  0.9635
18409THY    CP247528   2.608   6.160   2.968 -0.2521  0.3149 -0.3232
18409THY    HP247529   2.563   6.162   2.868 -1.6442  0.9090 -0.6443
18409THY    HP347530   2.641   6.058   2.987  4.6953 -0.7154  0.8090
18409THY    HP447531   2.704   6.212   2.957  0.6550  0.3485 -1.9295
18409THY    CP347532   2.497   6.363   3.054  0.4559 -0.5641 -0.2188
18409THY    HP547533   2.583   6.428   3.073 -2.1088 -1.5341  3.7639
18409THY    HP647534   2.411   6.402   3.109  1.1832  0.8486 -0.5295
18409THY    HP747535   2.471   6.383   2.950  0.8244 -0.7114 -0.4978
18409THY    CA347536   2.681   6.242   3.270 -0.2274  0.3131 -0.0965
18409THY    HA347537   2.704   6.339   3.228 -0.6957  2.1274  0.8328
18409THY    CA447538   2.752   6.194   3.382  0.7442  0.0059 -0.2471
18409THY    HA447539   2.827   6.255   3.431 -2.0271  1.6461  2.1662
18409THY    CA547540   2.712   6.074   3.438  0.7253 -0.1756 -0.5457
18409THY    CM147541   2.776   6.024   3.565 -0.2644 -1.1496  0.2072
18409THY    HM147542   2.773   6.090   3.652 -0.9816  2.1967 -3.8777
18409THY    HM247543   2.882   6.005   3.546  0.2690  2.1397 -0.5802
18409THY    HM347544   2.737   5.932   3.610 -1.4814  2.1281  2.1717
18409THY    CA647545   2.611   6.002   3.380 -0.5519 -0.4464  0.0393
18409THY    HA647546   2.576   5.909   3.424  2.4924  1.3938 -0.3945
18410THY      O47547   7.076   7.155   1.486 -0.0836 -0.2784  0.3923
18410THY     HO47548   7.170   7.155   1.463  0.0049 -0.0770  2.3190
18410THY    CA147549   7.037   7.041   1.544  0.0231 -0.7944 -0.1347
18410THY    CA247550   6.915   7.038   1.613 -1.0278  0.4391  0.5826
18410THY    CP147551   6.829   7.155   1.626 -0.6660 -0.2885  0.1605
18410THY    HP147552   6.867   7.234   1.559  0.4246 -0.9647 -0.9116
18410THY    CP247553   6.833   7.213   1.767  0.4369 -0.1040  0.8186
18410THY    HP247554   6.939   7.222   1.793  1.0935 -1.7442 -1.4420
18410THY    HP347555   6.794   7.135   1.833  0.9416 -0.0799  0.5872
18410THY    HP447556   6.783   7.311   1.774  0.8991 -0.1770  1.0616
18410THY    CP347557   6.684   7.131   1.587 -0.1315  0.1116 -0.2799
18410THY    HP547558   6.679   7.075   1.493  2.6070  0.1086 -0.6919
18410THY    HP647559   6.627   7.223   1.574  1.6099 -2.8445  0.5051
18410THY    HP747560   6.625   7.072   1.658 -1.9303 -2.0547 -1.1913
18410THY    CA347561   6.889   6.915   1.681  0.6024  0.5557 -0.2090
18410THY    HA347562   6.801   6.906   1.744  1.0992  1.4497  0.9179
18410THY    CA447563   6.976   6.805   1.676 -0.1892 -0.6399  0.0808
18410THY    HA447564   6.947   6.712   1.726  2.2996 -2.3796 -1.7745
18410THY    CA547565   7.090   6.809   1.599  0.0028 -0.3219  0.5991
18410THY    CM147566   7.178   6.687   1.594  0.0473 -0.3095  0.0379
18410THY    HM147567   7.207   6.644   1.690 -0.4614 -0.5445 -0.8608
18410THY    HM247568   7.274   6.696   1.541 -1.0815 -2.3595  0.6946
18410THY    HM347569   7.115   6.612   1.544 -0.7814  1.1436 -0.2663
18410THY    CA647570   7.122   6.930   1.539 -0.9297  0.4332  0.4958
18410THY    HA647571   7.215   6.928   1.482 -1.0208  0.2690 -1.5164
18411THY      O47572   5.531   3.111   7.235 -0.0414  0.1067 -0.1494
18411THY     HO47573   5.542   3.201   7.270 -1.6360  0.3070 -0.0024
18411THY    CA147574   5.624   3.035   7.285  0.2187 -0.6618 -0.4840
18411THY    CA247575   5.614   2.893   7.290 -0.3064 -0.2659 -0.0869
18411THY    CP147576   5.500   2.808   7.231 -0.8010 -0.2319 -0.0008
18411THY    HP147577   5.428   2.872   7.180  0.1636 -3.0819 -1.0219
18411THY    CP247578   5.427   2.727   7.343 -0.3164  0.4184  0.1646
18411THY    HP247579   5.449   2.767   7.442 -2.4560  1.2883 -0.6626
18411THY    HP347580   5.472   2.627   7.343  1.6558 -2.2547  0.9410
18411THY    HP447581   5.317   2.735   7.337 -0.1946  0.4576  2.5990
18411THY    CP347582   5.546   2.706   7.121  0.3716  0.3921  0.0454
18411THY    HP547583   5.589   2.614   7.163  0.2052 -0.6367 -0.5104
18411THY    HP647584   5.617   2.760   7.059  0.8906 -0.3143 -1.4059
18411THY    HP747585   5.459   2.682   7.058  0.8692 -0.2536 -0.0719
18411THY    CA347586   5.719   2.827   7.354  0.0997 -0.5837  0.0036
18411THY    HA347587   5.721   2.719   7.368  1.7101  1.4505  0.2299
18411THY    CA447588   5.829   2.890   7.399 -0.0213  0.2453  0.2743
18411THY    HA447589   5.906   2.835   7.454 -0.0307 -1.1038 -1.1425
18411THY    CA547590   5.840   3.032   7.396 -0.4488  0.4723 -0.1573
18411THY    CM147591   5.949   3.105   7.460 -0.6789  0.0594 -1.1883
18411THY    HM147592   6.043   3.111   7.404 -2.5455 -3.1983 -0.1543
18411THY    HM247593   5.959   3.058   7.559  1.1658 -0.0967 -1.2159
18411THY    HM347594   5.935   3.211   7.484  0.0973 -0.9859 -0.8307
18411THY    CA647595   5.739   3.102   7.338 -0.2832 -0.1595  0.0362
18411THY    HA647596   5.756   3.208   7.348  1.6987  2.1216 -0.4217
18412THY      O47597   7.127   5.121   2.555  0.1671  0.3311  1.0195
18412THY     HO47598   7.070   5.127   2.477 -0.0577  0.1150 -2.1650
18412THY    CA147599   7.062   5.045   2.642 -0.5280  0.2028  0.0641
18412THY    CA247600   7.116   5.026   2.770  0.2892 -0.2014  0.0858
18412THY    CP147601   7.231   5.106   2.813 -0.0180 -0.1896 -0.3553
18412THY    HP147602   7.242   5.193   2.747  0.3515 -2.4623 -2.0388
18412THY    CP247603   7.359   5.024   2.794 -0.2694 -0.0048  0.4058
18412THY    HP247604   7.358   4.993   2.689  2.0772 -0.1271  0.5882
18412THY    HP347605   7.362   4.934   2.857  0.5019 -1.6498 -0.7547
18412THY    HP447606   7.446   5.090   2.805  0.7203 -1.0063 -0.6934
18412THY    CP347607   7.222   5.151   2.958 -0.0306  0.1226  0.1492
18412THY    HP547608   7.240   5.068   3.027  5.3477 -0.2187  0.7097
18412THY    HP647609   7.134   5.210   2.986 -0.4916 -0.0178 -0.4592
18412THY    HP747610   7.305   5.220   2.974  2.3342 -0.0779 -2.4466
18412THY    CA347611   7.057   4.929   2.859  0.0098  1.2390  0.5194
18412THY    HA347612   7.100   4.905   2.956  3.2731 -0.0846  0.4136
18412THY    CA447613   6.929   4.873   2.817 -0.1677  0.2630  0.2604
18412THY    HA447614   6.883   4.797   2.880 -0.7241 -0.4847 -0.0283
18412THY    CA547615   6.870   4.898   2.690 -0.6556  0.3824 -0.3334
18412THY    CM147616   6.734   4.844   2.658 -0.3995  0.0252  0.6156
18412THY    HM147617   6.705   4.870   2.555 -3.0804  0.2980 -0.9134
18412THY    HM247618   6.661   4.902   2.716 -0.2500  0.2765  0.5537
18412THY    HM347619   6.718   4.737   2.675 -0.7861  1.3822  0.8780
18412THY    CA647620   6.937   4.990   2.606 -1.1181 -0.4518  0.4151
18412THY    HA647621   6.898   5.003   2.506 -1.1139 -0.5925 -0.6260
18413THY      O47622   0.979   8.832   3.997  0.6597 -0.0632 -1.1122
18413THY     HO47623   0.891   8.812   3.961 -0.0215  1.4938 -1.0368
18413THY    CA147624   0.971   8.968   3.997 -0.1967 -0.1057  0.2923
18413THY    CA247625   1.098   9.034   4.013  0.0385  0.3345  0.1689
18413THY    CP147626   1.237   8.951   4.015 -0.6001 -0.3708 -0.0903
18413THY    HP147627   1.220   8.855   4.066 -1.4035  0.1586  0.3258
18413THY    CP247628   1.342   9.017   4.110  0.4042  0.0826  0.1743
18413THY    HP247629   1.427   8.955   4.140 -0.4908  2.7473  0.1158
18413THY    HP347630   1.300   9.024   4.211  0.9304  0.2111  1.9795
18413THY    HP447631   1.375   9.114   4.070 -0.5394  0.8099  0.8088
18413THY    CP347632   1.292   8.935   3.875  0.4192 -0.0751 -0.5140
18413THY    HP547633   1.209   8.893   3.818  0.1395 -0.2711  0.2906
18413THY    HP647634   1.372   8.859   3.879  1.2313  0.9635  0.3589
18413THY    HP747635   1.322   9.027   3.824 -1.2251 -1.4339 -0.7027
18413THY    CA347636   1.092   9.179   4.021  0.0380 -0.2924  0.0451
18413THY    HA347637   1.184   9.235   4.025  0.2535 -2.0823 -0.1519
18413THY    CA447638   0.973   9.251   4.004  0.3194 -0.3411  0.0277
18413THY    HA447639   0.958   9.356   4.023 -1.0792 -1.2683  0.0329
18413THY    CA547640   0.851   9.183   3.977  0.4888 -0.6051  0.2968
18413THY    CM147641   0.717   9.246   3.966  1.0769 -0.0111  0.7102
18413THY    HM147642   0.644   9.211   4.041  0.0883 -0.6178  1.4236
18413THY    HM247643   0.694   9.205   3.867  1.1081  0.1052  0.4031
18413THY    HM347644   0.721   9.355   3.955 -4.2045  1.5550  1.3880
18413THY    CA647645   0.848   9.041   3.975 -0.3109 -0.6319  0.2572
18413THY    HA647646   0.755   8.988   3.958 -0.5491 -0.6802  0.6939
18414THY      O47647   6.509   5.723   4.721 -0.7356 -0.4203  0.5072
18414THY     HO47648   6.577   5.714   4.791 -2.6379  2.0762  3.5460
18414THY    CA147649   6.481   5.605   4.664  0.1596  0.4039 -0.0514
18414THY    CA247650   6.461   5.586   4.523 -0.5209 -0.6698  0.0406
18414THY    CP147651   6.476   5.704   4.429  0.7778 -0.1295 -0.2019
18414THY    HP147652   6.489   5.796   4.488 -0.3218  1.7347 -1.1912
18414THY    CP247653   6.339   5.743   4.355 -0.4287 -0.1412 -0.2730
18414THY    HP247654   6.277   5.799   4.425  0.3122 -1.6831  2.6716
18414THY    HP347655   6.284   5.655   4.318  0.5187 -0.5807 -0.7002
18414THY    HP447656   6.363   5.807   4.269  0.2508  1.3996  1.6212
18414THY    CP347657   6.594   5.685   4.325  0.5187 -0.1543  0.1441
18414THY    HP547658   6.559   5.612   4.252 -1.5247 -0.3143  1.2300
18414THY    HP647659   6.687   5.646   4.370 -0.1682 -1.2989 -3.1501
18414THY    HP747660   6.619   5.772   4.264  2.9226  0.9660  0.3217
18414THY    CA347661   6.423   5.461   4.472  0.3906  0.5109 -0.2823
18414THY    HA347662   6.397   5.448   4.367 -0.1364  0.8094 -1.8901
18414THY    CA447663   6.412   5.353   4.563  0.2594 -0.3160 -0.2585
18414THY    HA447664   6.372   5.262   4.520  0.7547 -1.9185  0.2433
18414THY    CA547665   6.422   5.370   4.706  0.5784 -0.4370 -0.8742
18414THY    CM147666   6.406   5.257   4.798 -0.2076 -0.6614  0.1422
18414THY    HM147667   6.411   5.284   4.904 -0.2114 -0.4729 -0.5806
18414THY    HM247668   6.495   5.194   4.793  0.6827 -0.1117  1.3228
18414THY    HM347669   6.310   5.209   4.775 -0.0512 -0.8825 -0.0656
18414THY    CA647670   6.457   5.497   4.750 -0.6741  0.1735 -0.4308
18414THY    HA647671   6.467   5.516   4.857  0.2207  0.1654 -0.8109
18415THY      O47672   1.625   5.652   6.762  0.1579  0.5327 -0.0121
18415THY     HO47673   1.613   5.746   6.740  0.1157  0.8944  0.0705
18415THY    CA147674   1.600   5.637   6.895 -1.0761  0.1472 -0.1654
18415THY    CA247675   1.682   5.545   6.972  0.4966  0.1856 -0.4227
18415THY    CP147676   1.789   5.459   6.904  0.2643 -0.5880  0.2511
18415THY    HP147677   1.778   5.473   6.796  1.0667 -0.6293  0.6671
18415THY    CP247678   1.769   5.317   6.943  0.1557  0.1484  0.1379
18415THY    HP247679   1.667   5.288   6.916 -0.7807  3.0835  0.4219
18415THY    HP347680   1.787   5.305   7.050  0.1121  0.2526  0.9096
18415THY    HP447681   1.836   5.254   6.883  0.0509 -0.4119  0.5507
18415THY    CP347682   1.935   5.500   6.936 -0.1433 -0.5113  0.0928
18415THY    HP547683   1.952   5.494   7.044 -1.1997 -0.3183  0.2867
18415THY    HP647684   1.958   5.605   6.913  1.2001  1.5884  0.3079
18415THY    HP747685   1.998   5.428   6.882  0.2272  0.1864 -0.1084
18415THY    CA347686   1.654   5.546   7.111 -0.2353 -0.1114  0.2268
18415THY    HA347687   1.725   5.484   7.165  1.3263 -4.4673 -2.2565
18415THY    CA447688   1.550   5.628   7.165  1.0818 -0.5867 -0.6398
18415THY    HA447689   1.530   5.616   7.271 -0.7101 -1.0303 -1.9552
18415THY    CA547690   1.471   5.702   7.079  0.8643  0.2840  1.0904
18415THY    CM147691   1.364   5.783   7.130 -1.1143  0.2069 -0.2855
18415THY    HM147692   1.351   5.784   7.239 -0.4801  0.2969  1.7619
18415THY    HM247693   1.273   5.749   7.077  0.4851 -1.3056 -2.5101
18415THY    HM347694   1.392   5.884   7.101 -0.5428 -1.3987 -0.8679
18415THY    CA647695   1.498   5.711   6.947 -1.0010 -0.2105  0.3060
18415THY    HA647696   1.429   5.757   6.876 -0.6953 -2.0245 -1.8168
18416THY      O47697   6.016   4.139   5.427  0.0102  0.5664  0.1295
18416THY     HO47698   6.021   4.142   5.524 -0.4098  0.6860 -1.6782
18416THY    CA147699   6.126   4.069   5.387 -0.1742 -0.2623 -0.1559
18416THY    CA247700   6.141   3.999   5.264 -0.2171  0.0170  0.5283
18416THY    CP147701   6.034   4.014   5.158  1.0270 -0.9065 -0.1646
18416THY    HP147702   5.962   4.089   5.193  1.9745 -0.4033  0.5270
18416THY    CP247703   5.941   3.894   5.148 -0.4737  0.1101 -0.1725
18416THY    HP247704   5.895   3.872   5.245 -0.5153  0.7601  2.4568
18416THY    HP347705   5.997   3.803   5.125 -2.3100 -0.9115 -1.1117
18416THY    HP447706   5.862   3.916   5.075  1.6510 -2.0579  0.6949
18416THY    CP347707   6.091   4.069   5.026  0.8570 -0.3605  0.3211
18416THY    HP547708   6.179   4.134   5.036  1.4384 -0.1433 -0.4787
18416THY    HP647709   6.016   4.115   4.961 -0.1212 -0.3313 -1.1632
18416THY    HP747710   6.127   3.985   4.965  0.2624 -0.4496  0.1271
18416THY    CA347711   6.258   3.920   5.240  0.4700 -0.2835 -1.0353
18416THY    HA347712   6.277   3.859   5.152  1.4084  0.4158 -1.7865
18416THY    CA447713   6.349   3.903   5.342 -0.3107 -0.1327  0.0825
18416THY    HA447714   6.430   3.832   5.331 -1.0489 -0.5450 -0.7157
18416THY    CA547715   6.341   3.979   5.456  0.2316 -0.0600  0.4391
18416THY    CM147716   6.444   3.967   5.573  0.0171 -0.4880 -0.4155
18416THY    HM147717   6.522   3.895   5.546  0.8471 -0.3406  0.4051
18416THY    HM247718   6.388   3.930   5.660 -0.6689 -1.2681 -1.2900
18416THY    HM347719   6.487   4.061   5.609 -3.2617  3.5804 -0.1626
18416THY    CA647720   6.232   4.061   5.477  0.0420  0.0893  0.1047
18416THY    HA647721   6.229   4.126   5.564  0.4152 -1.0046  1.6386
18417THY      O47722   4.139   2.555   5.378 -0.3660  0.3067  0.1914
18417THY     HO47723   4.156   2.471   5.331 -2.2003 -1.5846  0.7651
18417THY    CA147724   4.201   2.556   5.500  0.9071 -0.4454 -0.5989
18417THY    CA247725   4.129   2.596   5.613  1.0483 -0.2126  0.2035
18417THY    CP147726   3.987   2.643   5.598  0.5989 -0.6586 -0.0478
18417THY    HP147727   3.947   2.581   5.516 -0.0434  0.9037 -1.8176
18417THY    CP247728   3.977   2.787   5.556 -0.1961 -0.7565 -0.5598
18417THY    HP247729   3.878   2.820   5.522  0.9640 -0.4126  3.9293
18417THY    HP347730   4.038   2.806   5.467  0.4843 -0.5343 -1.6354
18417THY    HP447731   4.021   2.849   5.634 -0.6256  0.8783 -2.2189
18417THY    CP347732   3.887   2.631   5.719 -0.4561  0.2678  0.4239
18417THY    HP547733   3.878   2.530   5.761 -3.4031  0.0595  0.5158
18417THY    HP647734   3.786   2.660   5.690 -1.4982  0.2946 -2.7604
18417THY    HP747735   3.916   2.698   5.801  2.3434 -0.8332  0.7045
18417THY    CA347736   4.197   2.604   5.738 -0.2952  0.0283  0.3224
18417THY    HA347737   4.145   2.636   5.828 -0.1030  0.4862 -0.6257
18417THY    CA447738   4.325   2.553   5.752 -0.7318 -0.1743 -0.2637
18417THY    HA447739   4.363   2.558   5.854  0.2403 -0.4307 -1.7882
18417THY    CA547740   4.392   2.492   5.639  0.1586 -0.8949 -0.4937
18417THY    CM147741   4.527   2.438   5.657 -0.0376  0.9095 -0.5746
18417THY    HM147742   4.543   2.387   5.753  0.3685  1.1654  0.0328
18417THY    HM247743   4.605   2.511   5.635 -0.1154 -0.7714 -0.9544
18417THY    HM347744   4.531   2.356   5.583 -1.6586  1.6142 -1.3510
18417THY    CA647745   4.328   2.504   5.517 -0.3477  0.0606 -0.5112
18417THY    HA647746   4.383   2.469   5.430 -1.0789 -1.4597  1.8604
18418THY      O47747   7.026   1.526   3.355 -0.0172  0.0878 -0.1265
18418THY     HO47748   6.999   1.477   3.275 -1.2575  0.1360  0.4434
18418THY    CA147749   7.142   1.592   3.324 -0.2561  0.5372 -0.3070
18418THY    CA247750   7.243   1.616   3.417 -0.2375 -0.3266 -0.3112
18418THY    CP147751   7.242   1.556   3.562 -0.1580  0.2672 -0.5528
18418THY    HP147752   7.154   1.491   3.575  0.8895  0.7178 -1.9109
18418THY    CP247753   7.227   1.670   3.670  0.3501 -0.4072  0.4615
18418THY    HP247754   7.130   1.722   3.673 -0.6878  0.2116 -1.4079
18418THY    HP347755   7.295   1.753   3.650  1.3173  0.9869  0.0442
18418THY    HP447756   7.247   1.634   3.772  0.2165  0.1645  1.9123
18418THY    CP347757   7.354   1.455   3.579  0.5200 -0.1285  0.0912
18418THY    HP547758   7.453   1.492   3.549  0.9301  0.5925 -0.3939
18418THY    HP647759   7.335   1.364   3.521 -0.8391 -2.6419  1.8684
18418THY    HP747760   7.359   1.428   3.686 -0.1235  0.5298  2.3342
18418THY    CA347761   7.357   1.693   3.380 -0.2260 -0.0729 -0.0450
18418THY    HA347762   7.439   1.721   3.446 -0.9971  0.8090  0.1680
18418THY    CA447763   7.370   1.734   3.247  0.1531 -0.2425  0.3100
18418THY    HA447764   7.463   1.774   3.208  0.4943  1.4471  1.2381
18418THY    CA547765   7.268   1.721   3.160  0.3069 -0.1359  0.2870
18418THY    CM147766   7.277   1.765   3.021 -0.3635  0.5402 -0.5121
18418THY    HM147767   7.231   1.863   3.009  3.4781  0.8794  1.5213
18418THY    HM247768   7.232   1.687   2.958  1.8125 -1.7649 -0.0321
18418THY    HM347769   7.379   1.773   2.981 -0.2724  0.7651 -0.5264
18418THY    CA647770   7.153   1.651   3.196  0.6902 -0.0773  0.1527
18418THY    HA647771   7.071   1.649   3.124  0.4734  0.1394 -2.5646
18419THY      O47772   2.168   5.997   7.618  0.1447  0.7795 -0.2396
18419THY     HO47773   2.163   6.024   7.524 -0.4530  0.5652 -1.0604
18419THY    CA147774   2.286   5.932   7.646 -0.2356  0.2136 -0.1377
18419THY    CA247775   2.369   5.973   7.751 -0.0035  0.3674 -0.3396
18419THY    CP147776   2.347   6.101   7.827 -0.3694  0.4599 -0.6296
18419THY    HP147777   2.238   6.114   7.830 -0.4364  2.0656 -1.3678
18419THY    CP247778   2.395   6.220   7.755 -0.3072  0.6493 -0.1183
18419THY    HP247779   2.340   6.312   7.778  0.5172  0.9241  0.3189
18419THY    HP347780   2.380   6.201   7.648  0.7553  0.9199 -2.9779
18419THY    HP447781   2.503   6.228   7.771  0.2996 -1.6389 -2.4868
18419THY    CP347782   2.402   6.099   7.972 -0.2119 -0.1340 -0.0255
18419THY    HP547783   2.374   6.007   8.024  0.4469  1.3831  0.5961
18419THY    HP647784   2.363   6.191   8.016 -0.1935 -2.0502  0.9620
18419THY    HP747785   2.511   6.103   7.984  0.2116 -3.3928  1.0068
18419THY    CA347786   2.491   5.903   7.769  0.2693  0.7358 -0.6530
18419THY    HA347787   2.565   5.929   7.844  1.3230 -0.9973  1.6419
18419THY    CA447788   2.517   5.786   7.698 -0.0650 -0.0299  0.7733
18419THY    HA447789   2.595   5.718   7.731 -0.5998 -0.2732  0.0272
18419THY    CA547790   2.436   5.746   7.589 -0.7562  0.3520 -1.1082
18419THY    CM147791   2.464   5.631   7.488 -0.0966 -0.1957 -1.0278
18419THY    HM147792   2.369   5.582   7.465 -0.1595 -0.5963 -0.7233
18419THY    HM247793   2.526   5.561   7.545 -1.2358  0.7121 -1.3338
18419THY    HM347794   2.516   5.673   7.401 -0.4890 -0.3593 -0.8776
18419THY    CA647795   2.325   5.825   7.561  0.4061 -0.3768 -0.3411
18419THY    HA647796   2.258   5.792   7.483 -1.4905  1.0574 -0.0868
18420THY      O47797   4.928   1.899   2.531  0.4287  0.3960  0.1684
18420THY     HO47798   4.920   1.974   2.592  1.3121  1.8671 -0.8899
18420THY    CA147799   4.925   1.797   2.610  1.1922 -0.4908 -0.4790
18420THY    CA247800   4.921   1.667   2.557  0.6324 -0.4899 -0.3168
18420THY    CP147801   4.962   1.637   2.412  0.0767 -0.3866 -0.5415
18420THY    HP147802   4.956   1.733   2.358  2.1639 -2.7587 -1.6097
18420THY    CP247803   4.863   1.541   2.348 -0.4530  0.5677  0.2049
18420THY    HP247804   4.761   1.580   2.349 -1.0625  3.7310 -1.1759
18420THY    HP347805   4.860   1.447   2.404 -1.1442  0.4992  0.1807
18420THY    HP447806   4.901   1.528   2.246 -0.9129  0.4973 -0.6349
18420THY    CP347807   5.113   1.593   2.402 -0.6372  0.0794  0.0566
18420THY    HP547808   5.140   1.590   2.295  0.4323  0.3238 -3.5305
18420THY    HP647809   5.139   1.493   2.437 -0.6971 -1.1153 -0.3975
18420THY    HP747810   5.180   1.657   2.461 -1.2327  0.7828  0.0341
18420THY    CA347811   4.918   1.557   2.646  0.3210 -0.0390  0.1999
18420THY    HA347812   4.927   1.460   2.598 -0.7427 -0.3546  0.2360
18420THY    CA447813   4.905   1.580   2.781 -0.3222 -0.8927  0.0632
18420THY    HA447814   4.894   1.492   2.843  0.2896 -1.9202 -0.7660
18420THY    CA547815   4.913   1.712   2.833 -0.5779 -1.0985  1.0009
18420THY    CM147816   4.892   1.747   2.985  0.5421  0.4227 -0.5478
18420THY    HM147817   4.885   1.665   3.057  1.2791  0.2785 -0.7492
18420THY    HM247818   4.789   1.782   2.995  0.1972 -1.0009 -1.0988
18420THY    HM347819   4.974   1.810   3.021  1.8614  0.3451 -2.1591
18420THY    CA647820   4.910   1.812   2.746  0.1185 -0.3920 -0.4391
18420THY    HA647821   4.896   1.909   2.794 -0.6531  0.4219 -0.9421
18421THY      O47822   1.408   2.404   7.703 -0.0874  0.1967 -0.3693
18421THY     HO47823   1.403   2.470   7.633  0.8752  1.1186  0.7319
18421THY    CA147824   1.536   2.406   7.725 -0.9791 -0.4159  0.7034
18421THY    CA247825   1.613   2.290   7.721  0.5761  0.2675  0.0107
18421THY    CP147826   1.545   2.154   7.694  0.9804  0.0688  0.6660
18421THY    HP147827   1.436   2.153   7.694  0.8968  0.8929 -2.4596
18421THY    CP247828   1.578   2.050   7.802  1.1338 -0.3561 -0.1299
18421THY    HP247829   1.571   2.091   7.904  0.6255 -0.1900 -0.6005
18421THY    HP347830   1.682   2.019   7.790  0.6408 -1.3971 -1.4821
18421THY    HP447831   1.505   1.968   7.795  0.7540 -0.8408  0.2423
18421THY    CP347832   1.578   2.097   7.553 -0.1346  0.5608 -0.7058
18421THY    HP547833   1.513   2.014   7.521  0.3287 -1.4931 -0.3285
18421THY    HP647834   1.683   2.072   7.533  0.2600 -1.5170  2.1428
18421THY    HP747835   1.560   2.168   7.471 -0.1557  0.1002 -1.2378
18421THY    CA347836   1.748   2.299   7.746  0.3013 -0.2435  0.2190
18421THY    HA347837   1.799   2.205   7.727 -1.4248 -1.5700 -0.4982
18421THY    CA447838   1.817   2.426   7.751  0.7685 -0.0687  0.0927
18421THY    HA447839   1.919   2.424   7.788  0.1495  1.7218 -0.0338
18421THY    CA547840   1.743   2.546   7.743  0.4638 -0.0402  0.1306
18421THY    CM147841   1.824   2.674   7.760  0.3531  0.4974 -0.7761
18421THY    HM147842   1.760   2.732   7.827  0.8896  1.0057 -0.7623
18421THY    HM247843   1.835   2.730   7.667 -1.5120  1.3188  1.1187
18421THY    HM347844   1.920   2.657   7.811  0.5430  0.1828 -0.6535
18421THY    CA647845   1.603   2.534   7.740  0.1348 -0.0737  0.3605
18421THY    HA647846   1.537   2.620   7.745  0.6154  0.4513  0.7089
18422THY      O47847   3.376   8.605   4.861 -0.5749 -0.0495 -0.1014
18422THY     HO47848   3.303   8.625   4.921 -1.7349 -0.8906 -1.5679
18422THY    CA147849   3.451   8.526   4.936  1.0122  0.0671  0.0206
18422THY    CA247850   3.589   8.503   4.909  0.0041  0.4074 -0.1162
18422THY    CP147851   3.652   8.568   4.789 -0.4232  0.1739  0.1490
18422THY    HP147852   3.581   8.617   4.723  0.4746 -0.8700  0.0853
18422THY    CP247853   3.729   8.470   4.705 -0.5286 -0.4376  0.0731
18422THY    HP247854   3.809   8.434   4.771 -1.8750  1.0873 -0.2543
18422THY    HP347855   3.770   8.514   4.614 -2.4318 -1.1219  0.5313
18422THY    HP447856   3.668   8.380   4.692 -0.4859 -1.2128  0.1509
18422THY    CP347857   3.741   8.683   4.835  0.7624  0.9092 -0.4262
18422THY    HP547858   3.836   8.649   4.878  1.8442  1.7178  3.1545
18422THY    HP647859   3.690   8.767   4.884 -0.2753  0.8725 -1.0294
18422THY    HP747860   3.779   8.738   4.748 -0.8456  0.0437 -0.6355
18422THY    CA347861   3.657   8.424   5.005  0.3035  0.2115 -0.6132
18422THY    HA347862   3.765   8.412   5.001  0.3048 -0.1836 -0.4747
18422THY    CA447863   3.580   8.365   5.111 -0.6868 -0.8658  0.8275
18422THY    HA447864   3.626   8.304   5.188  0.8783 -0.9920  1.7918
18422THY    CA547865   3.435   8.376   5.111 -0.3555 -0.5122  0.3965
18422THY    CM147866   3.364   8.310   5.220  0.0702 -0.9483  0.2209
18422THY    HM147867   3.258   8.301   5.194 -0.6032  1.2984  1.2168
18422THY    HM247868   3.356   8.379   5.304  0.7781 -0.7028  0.0255
18422THY    HM347869   3.408   8.212   5.245 -2.2566 -0.8271 -0.8575
18422THY    CA647870   3.372   8.464   5.032  0.2285  0.6485 -1.1512
18422THY    HA647871   3.267   8.486   5.045  0.5801  2.5366 -0.3801
18423THY      O47872   6.140   4.956   3.823 -0.4744 -0.1444 -0.2317
18423THY     HO47873   6.125   4.869   3.784  2.7975 -0.0867 -0.9587
18423THY    CA147874   6.060   4.967   3.931 -0.0841 -0.1721  0.1674
18423THY    CA247875   6.100   5.021   4.053  0.3037 -0.9078 -0.6000
18423THY    CP147876   6.240   5.067   4.056  0.0210 -0.4414 -0.4212
18423THY    HP147877   6.303   5.005   3.990 -2.1846 -2.7015 -0.4309
18423THY    CP247878   6.312   5.070   4.195 -0.0338  0.6273 -0.2311
18423THY    HP247879   6.282   4.981   4.251 -0.5018 -0.3280 -0.6775
18423THY    HP347880   6.297   5.165   4.248  1.1747  0.5178  0.0446
18423THY    HP447881   6.422   5.070   4.189  0.0717  2.1649 -0.8896
18423THY    CP347882   6.242   5.213   4.006  0.7060  0.6276  0.4229
18423THY    HP547883   6.165   5.274   4.056 -1.0060  2.1017 -2.7160
18423THY    HP647884   6.215   5.219   3.900 -0.3605  0.7170 -1.9064
18423THY    HP747885   6.341   5.259   4.020  0.2066  0.0490  1.7212
18423THY    CA347886   6.007   5.024   4.163 -1.1307  0.0561 -0.0205
18423THY    HA347887   6.031   5.069   4.259  0.2591 -0.0434 -0.5078
18423THY    CA447888   5.879   4.968   4.145 -0.0687 -0.2066 -0.1651
18423THY    HA447889   5.803   4.972   4.223 -1.3262 -1.4302  0.6724
18423THY    CA547890   5.843   4.916   4.020 -0.2739 -1.0889  0.5037
18423THY    CM147891   5.712   4.842   4.013 -0.3988  0.1900 -1.0451
18423THY    HM147892   5.691   4.784   4.104 -0.3113 -0.7314 -2.6011
18423THY    HM247893   5.708   4.767   3.933 -0.8197  0.2554 -1.0922
18423THY    HM347894   5.634   4.914   3.988 -1.3205  0.2812 -1.9876
18423THY    CA647895   5.937   4.901   3.921 -0.1798  0.9902  0.1406
18423THY    HA647896   5.906   4.850   3.830  0.2631  0.5589  0.6384
18424THY      O47897   4.504   7.117   6.663  0.6821  0.8039  0.0485
18424THY     HO47898   4.598   7.110   6.638  0.5291 -0.0606  0.8786
18424THY    CA147899   4.447   7.017   6.602  0.5503 -0.2094  0.7310
18424THY    CA247900   4.336   6.945   6.656  0.6659 -0.5247 -0.0324
18424THY    CP147901   4.285   6.982   6.796 -0.2318 -0.2493 -0.0496
18424THY    HP147902   4.308   7.082   6.834  3.0202  0.4526 -0.9434
18424THY    CP247903   4.360   6.898   6.899 -0.7395  0.3064  0.1994
18424THY    HP247904   4.298   6.909   6.989 -3.3275 -1.0638 -1.9197
18424THY    HP347905   4.463   6.928   6.921 -0.7428  1.8127 -0.7774
18424THY    HP447906   4.370   6.793   6.869  4.0544 -0.1518  0.5343
18424THY    CP347907   4.132   6.962   6.818  0.0730  0.2098 -0.1488
18424THY    HP547908   4.110   6.855   6.817  0.6905 -1.8934 -0.3006
18424THY    HP647909   4.083   7.006   6.730  0.3459  0.0983 -0.0630
18424THY    HP747910   4.102   7.014   6.909  0.4921 -0.3346  1.0852
18424THY    CA347911   4.291   6.832   6.595  1.1227  0.2128  0.3126
18424THY    HA347912   4.223   6.760   6.641  0.2847 -1.1999  0.1661
18424THY    CA447913   4.334   6.803   6.463 -0.4936 -0.1798  0.9059
18424THY    HA447914   4.296   6.721   6.404  0.6320 -2.3998  1.8989
18424THY    CA547915   4.425   6.886   6.397 -0.7378 -0.1689 -0.4654
18424THY    CM147916   4.480   6.854   6.264 -0.1447  0.2275 -0.8708
18424THY    HM147917   4.405   6.804   6.203 -0.0020 -1.6277  1.0240
18424THY    HM247918   4.561   6.781   6.275 -1.2598  1.9257 -1.9204
18424THY    HM347919   4.497   6.951   6.215 -0.4423  2.3925  0.3424
18424THY    CA647920   4.477   6.992   6.471 -0.2596  0.0170 -0.7003
18424THY    HA647921   4.559   7.051   6.431 -0.3412 -0.9189 -1.2166
18425THY      O47922   3.162   1.110   5.095 -0.2743 -0.0777  0.3850
18425THY     HO47923   3.076   1.149   5.070 -1.2704  2.8856  0.3328
18425THY    CA147924   3.230   1.101   4.981  0.5479  0.2735  0.4973
18425THY    CA247925   3.361   1.050   4.969 -0.1737  0.0406  0.1526
18425THY    CP147926   3.445   1.032   5.097  0.4684  0.2493  0.0587
18425THY    HP147927   3.426   1.111   5.171 -1.0610  0.8488 -0.8115
18425THY    CP247928   3.591   1.061   5.072 -0.5213 -0.7178  0.4063
18425THY    HP247929   3.639   0.982   5.013  1.0936 -1.7239  2.0981
18425THY    HP347930   3.640   1.067   5.170  0.7015 -1.2995  0.2435
18425THY    HP447931   3.601   1.158   5.024  1.2980  0.9835  1.1354
18425THY    CP347932   3.436   0.889   5.162  0.4388  0.3206 -0.1747
18425THY    HP547933   3.375   0.820   5.103 -0.8097  0.5758  0.6635
18425THY    HP647934   3.391   0.907   5.261 -0.3522 -0.1889  0.8174
18425THY    HP747935   3.535   0.843   5.173 -0.2674  1.4524 -1.5010
18425THY    CA347936   3.412   1.036   4.838  0.1315  0.1895 -0.2847
18425THY    HA347937   3.514   1.003   4.818 -0.2817 -0.9472 -0.9069
18425THY    CA447938   3.332   1.064   4.727 -0.5103 -0.1454  0.7400
18425THY    HA447939   3.365   1.046   4.625 -1.4868 -0.4892  0.8377
18425THY    CA547940   3.194   1.090   4.744 -0.2188  0.6869 -0.4309
18425THY    CM147941   3.103   1.110   4.618 -0.9064 -0.0590  0.1253
18425THY    HM147942   2.998   1.095   4.647 -2.6421 -3.6461  3.5710
18425THY    HM247943   3.132   1.036   4.542  0.2222  1.2185 -0.7984
18425THY    HM347944   3.122   1.210   4.577 -2.0894  1.1822  0.8877
18425THY    CA647945   3.145   1.100   4.873  0.0650  0.5569 -0.3523
18425THY    HA647946   3.038   1.115   4.881 -0.2320 -3.3323  0.6106
18426THY      O47947   2.262   4.439   6.400  0.0739  0.0228 -0.1838
18426THY     HO47948   2.181   4.395   6.431 -0.6562 -0.4312  0.8200
18426THY    CA147949   2.252   4.565   6.461  0.8727 -0.4970  0.9658
18426THY    CA247950   2.341   4.674   6.448  0.3669 -0.2949 -0.1618
18426THY    CP147951   2.451   4.656   6.345  0.0585  0.1744 -0.8558
18426THY    HP147952   2.425   4.570   6.282  0.1207 -1.6739  0.4353
18426THY    CP247953   2.588   4.636   6.413  0.0852 -0.2031 -0.4233
18426THY    HP247954   2.583   4.542   6.469  0.3825 -1.5220 -1.2516
18426THY    HP347955   2.614   4.729   6.464 -0.5074  1.4025 -1.1062
18426THY    HP447956   2.677   4.610   6.354  0.7389  0.6192 -0.0712
18426THY    CP347957   2.459   4.779   6.251 -0.0091  0.5350  0.4901
18426THY    HP547958   2.527   4.763   6.167  1.3381  1.5434  0.7870
18426THY    HP647959   2.482   4.874   6.301 -1.8663 -0.3358  1.4539
18426THY    HP747960   2.357   4.799   6.217 -0.7779  2.2257 -0.3290
18426THY    CA347961   2.316   4.781   6.529 -0.0600 -0.4374  0.6812
18426THY    HA347962   2.378   4.869   6.512 -0.1876 -3.6764  0.2726
18426THY    CA447963   2.213   4.783   6.618  0.6124 -0.2643 -0.0251
18426THY    HA447964   2.199   4.873   6.677  2.5868  0.3109 -0.0483
18426THY    CA547965   2.131   4.669   6.640 -0.5378 -0.0148 -0.0132
18426THY    CM147966   2.053   4.661   6.779  0.0482 -0.5799  0.8600
18426THY    HM147967   2.019   4.762   6.802  0.9224 -0.3936  1.1171
18426THY    HM247968   2.101   4.620   6.868 -2.2727  0.3116 -0.1015
18426THY    HM347969   1.970   4.591   6.761  1.2903 -2.0559 -0.3313
18426THY    CA647970   2.151   4.566   6.555  0.1189 -0.4569  0.6840
18426THY    HA647971   2.087   4.479   6.562 -0.2382  0.0151  0.9777
18427THY      O47972   7.670   2.714   5.741  0.6281  0.3272 -0.4535
18427THY     HO47973   7.670   2.736   5.836 -3.8306  0.0160  2.0296
18427THY    CA147974   7.623   2.826   5.680 -0.0522  0.1895  0.5634
18427THY    CA247975   7.639   2.844   5.539  0.1791 -0.1073 -0.5438
18427THY    CP147976   7.727   2.754   5.448 -0.1463 -0.7489 -0.2567
18427THY    HP147977   7.804   2.708   5.511 -1.4819  1.5452  0.4867
18427THY    CP247978   7.807   2.840   5.354  0.2995  0.1344  0.0922
18427THY    HP247979   7.751   2.871   5.265 -0.3209  0.9998  1.5774
18427THY    HP347980   7.889   2.786   5.306  0.3819 -0.5164  0.7799
18427THY    HP447981   7.852   2.929   5.400 -2.2984  2.3369  0.3851
18427THY    CP347982   7.646   2.647   5.387 -0.0862 -0.4612 -0.1367
18427THY    HP547983   7.589   2.593   5.463  0.9793  2.0497  2.0474
18427THY    HP647984   7.715   2.578   5.335 -1.0317 -2.0471  0.0640
18427THY    HP747985   7.582   2.685   5.306  0.7105 -1.1485 -0.2138
18427THY    CA347986   7.578   2.962   5.489 -0.5483  0.2468 -0.3432
18427THY    HA347987   7.582   2.993   5.385  3.1558  0.2896 -0.2588
18427THY    CA447988   7.493   3.042   5.564  0.1412 -0.2781  0.0951
18427THY    HA447989   7.449   3.130   5.518  0.2963 -0.5588  0.0278
18427THY    CA547990   7.475   3.015   5.695  0.9308  0.1936  0.3606
18427THY    CM147991   7.372   3.094   5.773 -0.1757 -0.6720 -0.0574
18427THY    HM147992   7.379   3.200   5.748 -0.3151 -0.1213  0.0818
18427THY    HM247993   7.381   3.079   5.881 -0.6548 -0.5367  0.5978
18427THY    HM347994   7.270   3.058   5.755 -0.4284 -2.6558  1.4316
18427THY    CA647995   7.534   2.904   5.751  0.4104 -0.4673 -0.5993
18427THY    HA647996   7.515   2.886   5.857 -1.0714 -0.9410 -2.0187
18428THY      O47997   8.593   7.741   4.589 -0.0938  0.2811 -0.0122
18428THY     HO47998   8.502   7.729   4.622 -0.6363 -1.0896  0.1414
18428THY    CA147999   8.653   7.780   4.699  0.2903  0.1058 -0.0773
18428THY    CA248000   8.791   7.821   4.697  0.5439 -0.3904 -1.3634
18428THY    CP148001   8.878   7.814   4.570  0.6873  0.1458  0.0464
18428THY    HP148002   8.814   7.754   4.503  0.1859  0.9445 -0.3298
18428THY    CP248003   9.004   7.742   4.592  0.8511  0.3180  0.0133
18428THY    HP248004   8.985   7.645   4.641 -0.2893  0.8056  0.4647
18428THY    HP348005   9.084   7.795   4.644  1.4870 -1.7211  1.1665
18428THY    HP448006   9.063   7.729   4.500  1.1385  0.1101  2.3785
18428THY    CP348007   8.885   7.951   4.497 -0.4935  0.1291 -0.0579
18428THY    HP548008   8.918   7.943   4.392  0.4946  0.2007  2.2953
18428THY    HP648009   8.946   8.017   4.560 -1.4501  0.3435  0.6420
18428THY    HP748010   8.790   8.004   4.503 -0.1660 -2.5685  1.0217
18428THY    CA348011   8.842   7.869   4.819 -0.3799 -0.6116  0.0620
18428THY    HA348012   8.946   7.901   4.814 -0.4100 -1.9518  0.0227
18428THY    CA448013   8.764   7.873   4.933  0.1604 -0.6158 -0.1668
18428THY    HA448014   8.804   7.912   5.026  0.3812  0.7233 -3.2961
18428THY    CA548015   8.634   7.833   4.928  0.3526 -0.3362  0.2181
18428THY    CM148016   8.550   7.826   5.050 -0.1674 -0.8038 -0.0870
18428THY    HM148017   8.459   7.884   5.029 -0.0395 -0.6821  0.1574
18428THY    HM248018   8.602   7.869   5.136 -0.1824 -1.0617  0.4570
18428THY    HM348019   8.516   7.727   5.081  0.2753 -2.5809 -0.8498
18428THY    CA648020   8.580   7.793   4.810 -0.1669 -0.0207 -0.3031
18428THY    HA648021   8.475   7.765   4.810  0.6470 -0.4985 -3.8524
18429THY      O48022   6.602   3.210   3.388 -0.2824 -0.3010 -0.7152
18429THY     HO48023   6.679   3.156   3.362  0.6712  1.3278 -0.2094
18429THY    CA148024   6.620   3.337   3.333 -0.6847 -0.2332 -0.4969
18429THY    CA248025   6.623   3.450   3.413 -0.2203 -0.0250  0.4697
18429THY    CP148026   6.610   3.433   3.563  0.2604 -0.2153 -0.2957
18429THY    HP148027   6.604   3.328   3.595  2.3116  1.0357 -0.0960
18429THY    CP248028   6.493   3.506   3.629  0.1551 -0.7697 -0.7547
18429THY    HP248029   6.477   3.603   3.581 -4.0253  0.3146 -0.7455
18429THY    HP348030   6.511   3.541   3.731 -1.3397 -1.2466  1.6062
18429THY    HP448031   6.400   3.448   3.621 -0.0332 -3.0162 -0.2347
18429THY    CP348032   6.734   3.494   3.632  0.0316  0.5098 -0.2531
18429THY    HP548033   6.823   3.444   3.594 -0.1470 -3.6408  2.0848
18429THY    HP648034   6.737   3.476   3.740 -1.5662  1.1904  2.7949
18429THY    HP748035   6.736   3.600   3.603 -1.9152  3.1957  0.6253
18429THY    CA348036   6.622   3.574   3.343  0.2632  0.5873  0.5074
18429THY    HA348037   6.623   3.669   3.396  0.5880 -0.0309  0.8547
18429THY    CA448038   6.620   3.580   3.202  0.1572  0.3473 -0.7560
18429THY    HA448039   6.624   3.679   3.157  2.9568  2.5988  0.3010
18429THY    CA548040   6.627   3.468   3.129  0.0790 -0.2262 -0.1897
18429THY    CM148041   6.653   3.470   2.981  0.8773 -0.3481 -0.3775
18429THY    HM148042   6.618   3.387   2.918 -0.4545  0.0456 -0.1333
18429THY    HM248043   6.760   3.485   2.960  1.4439  1.0386 -2.1624
18429THY    HM348044   6.615   3.561   2.933 -1.0767  0.3363 -0.7960
18429THY    CA648045   6.629   3.347   3.197 -0.1752 -0.0687  0.2482
18429THY    HA648046   6.614   3.259   3.135 -0.8692 -0.1364  0.4053
18430THY      O48047   0.219   7.921   6.571  0.2817  0.1753  1.0461
18430THY     HO48048   0.131   7.963   6.574 -1.7158  4.0968 -2.5809
18430THY    CA148049   0.239   7.871   6.697  0.4930  0.7979  0.8367
18430THY    CA248050   0.299   7.746   6.719 -0.5666  0.2833  0.3677
18430THY    CP148051   0.361   7.665   6.605 -0.1551  0.3726  0.1424
18430THY    HP148052   0.403   7.734   6.531 -3.2470 -1.7110  0.0365
18430THY    CP248053   0.249   7.587   6.531 -0.5034  0.4268  0.3162
18430THY    HP248054   0.155   7.643   6.525 -0.8891 -0.9435 -0.4205
18430THY    HP348055   0.233   7.494   6.586 -1.3134  0.2756  0.3564
18430THY    HP448056   0.287   7.565   6.430 -1.9562 -0.5502  1.9750
18430THY    CP348057   0.480   7.570   6.636  0.0630  0.0496 -0.5827
18430THY    HP548058   0.566   7.630   6.669  0.7027 -1.3585 -0.6742
18430THY    HP648059   0.498   7.511   6.545  0.0523 -1.5823  1.7722
18430THY    HP748060   0.452   7.493   6.709 -1.5165 -0.4089 -0.4716
18430THY    CA348061   0.310   7.694   6.848  0.2486 -0.4344 -0.0911
18430THY    HA348062   0.366   7.603   6.869 -0.7920 -1.8835 -1.1081
18430THY    CA448063   0.250   7.766   6.955 -0.1886  1.3695  0.6216
18430THY    HA448064   0.260   7.734   7.058  0.3141  1.2995  0.5532
18430THY    CA548065   0.182   7.887   6.932  0.0240  0.4808 -0.9876
18430THY    CM148066   0.121   7.961   7.048  0.5509 -0.0781 -0.6282
18430THY    HM148067   0.153   7.928   7.147 -3.8024  0.9189 -2.5303
18430THY    HM248068   0.013   7.947   7.054  0.6292 -0.0412 -1.2431
18430THY    HM348069   0.146   8.068   7.047  2.8891  3.2058 -1.0011
18430THY    CA648070   0.177   7.947   6.800 -0.6840 -0.0252  0.5856
18430THY    HA648071   0.129   8.043   6.787 -0.0712 -1.5878  0.7160
18431THY      O48072   5.438   6.633   2.368  0.3411  0.2385 -0.0160
18431THY     HO48073   5.387   6.716   2.371 -1.1661 -0.6860 -0.8587
18431THY    CA148074   5.551   6.657   2.300 -0.0617  0.8933 -0.1213
18431THY    CA248075   5.671   6.594   2.336  0.4530  0.3608  0.3187
18431THY    CP148076   5.672   6.499   2.463 -0.0572 -0.5109 -0.3057
18431THY    HP148077   5.596   6.523   2.538 -0.2082  0.0454 -2.3369
18431THY    CP248078   5.804   6.510   2.552  0.6800  1.1601 -0.7388
18431THY    HP248079   5.805   6.615   2.581 -0.8700 -0.0287 -0.3573
18431THY    HP348080   5.894   6.499   2.490 -0.5622 -1.0810  0.9215
18431THY    HP448081   5.815   6.429   2.625 -0.4318  0.5020 -1.5164
18431THY    CP348082   5.654   6.358   2.424 -0.2142 -0.3931  0.3030
18431THY    HP548083   5.742   6.327   2.365  0.2554  0.0186  0.8319
18431THY    HP648084   5.565   6.335   2.365 -0.8007  0.3612  0.6135
18431THY    HP748085   5.650   6.295   2.514 -1.0343  0.5653  1.6685
18431THY    CA348086   5.781   6.632   2.261 -0.3909  0.5640  0.1595
18431THY    HA348087   5.877   6.591   2.289  0.4956 -2.5180 -0.0914
18431THY    CA448088   5.770   6.713   2.151  0.9897  0.4228  0.1837
18431THY    HA448089   5.855   6.750   2.095  0.0847  0.0798  1.8525
18431THY    CA548090   5.646   6.771   2.124 -0.0567  0.3172 -0.0721
18431THY    CM148091   5.635   6.874   2.016 -0.5634 -0.3512 -0.0878
18431THY    HM148092   5.566   6.822   1.949 -1.1754 -0.3428  0.6975
18431THY    HM248093   5.725   6.898   1.958 -1.1859 -1.6239 -0.7360
18431THY    HM348094   5.603   6.966   2.066  0.9578 -1.2623  0.9818
18431THY    CA648095   5.533   6.743   2.195 -0.6222 -0.6158 -0.0847
18431THY    HA648096   5.438   6.780   2.159 -2.4154  0.7635 -2.9917
18432THY      O48097   5.422   6.330   3.686 -0.0566  0.0982 -0.0884
18432THY     HO48098   5.509   6.315   3.646 -0.5073 -1.1375  0.4328
18432THY    CA148099   5.434   6.442   3.759 -0.9178 -0.1777 -0.8190
18432THY    CA248100   5.320   6.508   3.820 -0.9369  0.1410  0.4909
18432THY    CP148101   5.177   6.473   3.786 -0.2363  0.6117 -0.2455
18432THY    HP148102   5.180   6.427   3.686 -0.1584  1.3949 -1.9914
18432THY    CP248103   5.074   6.591   3.772 -0.0807  0.6739  0.0156
18432THY    HP248104   5.048   6.636   3.869 -0.8944 -0.4012  1.9895
18432THY    HP348105   4.983   6.553   3.726 -0.5440 -1.9041  3.6763
18432THY    HP448106   5.112   6.661   3.697 -1.3678 -0.8018 -0.8151
18432THY    CP348107   5.119   6.384   3.894 -0.0480  0.0703  0.4922
18432THY    HP548108   5.015   6.357   3.873  0.0391 -0.2214  0.3784
18432THY    HP648109   5.119   6.429   3.994 -1.8205  0.5085 -0.3850
18432THY    HP748110   5.178   6.291   3.892 -1.0630  1.9196 -0.2664
18432THY    CA348111   5.347   6.621   3.905 -0.2334  0.1884  0.1404
18432THY    HA348112   5.264   6.674   3.950 -1.6766 -0.8657 -1.1061
18432THY    CA448113   5.474   6.676   3.912  0.2094 -1.0882  0.1000
18432THY    HA448114   5.484   6.760   3.980  0.8263  0.1122 -0.9112
18432THY    CA548115   5.583   6.609   3.855 -0.2823 -0.6671  0.2221
18432THY    CM148116   5.718   6.669   3.850  0.0469 -0.3314  0.0883
18432THY    HM148117   5.793   6.593   3.874  1.6337 -1.5540  1.1924
18432THY    HM248118   5.725   6.745   3.928 -2.0533 -3.0017  3.3885
18432THY    HM348119   5.745   6.704   3.749  0.7119 -0.9198 -1.9686
18432THY    CA648120   5.565   6.490   3.780  0.5330 -0.2021 -0.0245
18432THY    HA648121   5.647   6.433   3.738 -1.5236 -1.3003 -2.3651
18433THY      O48122   7.936   7.786   7.469 -0.6427  0.7141 -0.1855
18433THY     HO48123   7.994   7.800   7.546  0.3475  0.1647 -1.0765
18433THY    CA148124   7.984   7.866   7.370 -0.0105  0.4219  0.3633
18433THY    CA248125   7.960   7.843   7.234 -0.5814 -0.7764  0.1425
18433THY    CP148126   7.883   7.722   7.197 -0.1406 -0.1077 -0.2261
18433THY    HP148127   7.906   7.645   7.272 -3.1161  0.4630 -0.6537
18433THY    CP248128   7.941   7.662   7.065  0.6796  0.2347  0.0838
18433THY    HP248129   8.049   7.679   7.060  0.6176 -1.4221  0.1197
18433THY    HP348130   7.891   7.710   6.980 -0.4702 -0.4156 -2.1594
18433THY    HP448131   7.930   7.553   7.062 -0.8205  0.2141  0.2239
18433THY    CP348132   7.729   7.736   7.188  0.0719  0.8302 -0.0636
18433THY    HP548133   7.699   7.829   7.139 -0.8052  2.2406  0.4256
18433THY    HP648134   7.678   7.731   7.286 -1.8496 -0.1391 -0.5033
18433THY    HP748135   7.694   7.652   7.127  0.8446 -0.5364  0.5741
18433THY    CA348136   8.014   7.941   7.140  0.5807 -0.2378 -0.5237
18433THY    HA348137   8.004   7.939   7.032  1.0751 -0.3842  1.6726
18433THY    CA448138   8.067   8.059   7.185  0.4552 -0.5900  0.1275
18433THY    HA448139   8.101   8.139   7.120  0.5584  2.5018  2.8120
18433THY    CA548140   8.095   8.075   7.328 -0.9236 -0.2716  0.0225
18433THY    CM148141   8.164   8.207   7.362 -0.1550 -0.5996  0.0235
18433THY    HM148142   8.093   8.278   7.404 -0.8045  0.2803 -1.1095
18433THY    HM248143   8.212   8.253   7.274  1.8678  0.6792  0.4968
18433THY    HM348144   8.237   8.187   7.441 -0.2357 -0.7068 -0.7191
18433THY    CA648145   8.057   7.978   7.416  0.3120  0.0436  0.2256
18433THY    HA648146   8.064   7.997   7.523  1.1641  0.1186 -0.5046
18434THY      O48147   2.989   4.720   7.398  0.4671 -0.4115  0.1896
18434THY     HO48148   2.959   4.671   7.320  2.1794 -1.1348  0.2099
18434THY    CA148149   3.120   4.738   7.372  0.8538 -0.4640 -0.1544
18434THY    CA248150   3.228   4.699   7.451  0.5200  0.2762  0.5420
18434THY    CP148151   3.211   4.622   7.579 -0.1859  0.4456 -0.1414
18434THY    HP148152   3.306   4.587   7.620 -0.3901  0.4852 -0.6520
18434THY    CP248153   3.126   4.497   7.562 -0.0713  0.4811 -0.1195
18434THY    HP248154   3.155   4.429   7.481 -1.4976 -0.6700  0.5832
18434THY    HP348155   3.021   4.529   7.565  0.3415  2.0287  1.1822
18434THY    HP448156   3.138   4.428   7.646  1.6636 -0.6504 -1.2859
18434THY    CP348157   3.153   4.719   7.690 -0.6460 -0.3010  0.0065
18434THY    HP548158   3.232   4.792   7.713 -0.8330 -0.3644  0.2300
18434THY    HP648159   3.132   4.670   7.786  3.2614  0.7237 -0.0324
18434THY    HP748160   3.061   4.757   7.645 -0.3431 -0.9845 -0.0544
18434THY    CA348161   3.354   4.734   7.408 -0.8130  0.4238  0.1164
18434THY    HA348162   3.445   4.708   7.461 -0.0711 -0.2384  1.2836
18434THY    CA448163   3.374   4.794   7.282 -0.2560  0.2982  0.7624
18434THY    HA448164   3.473   4.830   7.256  0.0708 -0.4246 -0.5878
18434THY    CA548165   3.271   4.811   7.195 -0.5236 -0.5654 -0.3111
18434THY    CM148166   3.294   4.883   7.055 -0.9726 -0.8088 -0.7408
18434THY    HM148167   3.391   4.855   7.011 -0.3079  0.1935 -0.0371
18434THY    HM248168   3.295   4.990   7.078 -2.0818  0.8716 -1.0565
18434THY    HM348169   3.215   4.868   6.980 -1.1615 -0.8932  0.5764
18434THY    CA648170   3.141   4.776   7.241 -0.2782  0.3227 -0.2347
18434THY    HA648171   3.055   4.800   7.179 -2.0617  1.8651 -2.1790
18435THY      O48172   3.841   4.203   2.387 -0.3826  0.3803  0.7223
18435THY     HO48173   3.881   4.248   2.311 -0.8431  0.4789  1.3121
18435THY    CA148174   3.740   4.131   2.327 -0.5473 -0.1323 -1.6255
18435THY    CA248175   3.644   4.063   2.408 -0.0942 -0.3142 -0.2625
18435THY    CP148176   3.647   4.073   2.562 -0.3566  0.7208 -0.2875
18435THY    HP148177   3.740   4.120   2.597 -1.3362  0.5969  1.8296
18435THY    CP248178   3.643   3.933   2.617  0.4400 -0.1471 -0.4189
18435THY    HP248179   3.669   3.938   2.724  2.7844 -0.6981  2.1863
18435THY    HP348180   3.716   3.857   2.587  1.5478  3.1396 -0.8137
18435THY    HP448181   3.536   3.910   2.614 -0.0539  0.8257  1.5349
18435THY    CP348182   3.538   4.155   2.614  0.0713  0.4739  0.2041
18435THY    HP548183   3.544   4.260   2.581 -0.8735  2.4230  0.9208
18435THY    HP648184   3.559   4.168   2.721  1.0497  0.1361  1.6148
18435THY    HP748185   3.440   4.107   2.603  1.3541  0.1217 -2.5038
18435THY    CA348186   3.543   3.988   2.348 -0.4882  0.8991  0.0535
18435THY    HA348187   3.459   3.949   2.405  0.1654  4.2400  2.9470
18435THY    CA448188   3.553   3.968   2.209  0.0331  0.1892 -1.0250
18435THY    HA448189   3.482   3.903   2.159  1.3437 -2.4732 -0.5674
18435THY    CA548190   3.649   4.037   2.131 -0.9599 -0.8295  0.2114
18435THY    CM148191   3.675   4.011   1.986 -0.1281  0.8970 -0.4233
18435THY    HM148192   3.618   3.926   1.948 -1.1798  1.7313 -0.1212
18435THY    HM248193   3.781   3.992   1.966  0.3315  2.7137  0.0420
18435THY    HM348194   3.652   4.097   1.922 -0.3406 -1.2464 -2.0096
18435THY    CA648195   3.743   4.124   2.192 -0.4121 -0.2467 -0.5357
18435THY    HA648196   3.813   4.186   2.137 -1.7326 -0.4771  0.8243
18436THY      O48197   7.124   5.187   4.619 -0.4389 -0.2414  0.0402
18436THY     HO48198   7.096   5.094   4.624  0.7651 -0.8418 -0.3734
18436THY    CA148199   7.015   5.258   4.664 -0.2610  0.1013 -0.4409
18436THY    CA248200   6.983   5.377   4.593 -0.2984  0.4601 -0.2814
18436THY    CP148201   7.045   5.403   4.451  0.1329  0.6524 -0.5485
18436THY    HP148202   7.064   5.308   4.401  2.5666  1.1098 -0.3831
18436THY    CP248203   7.185   5.473   4.460  0.9519 -0.3616  0.0243
18436THY    HP248204   7.241   5.462   4.366  1.1114 -0.5907  2.3133
18436THY    HP348205   7.247   5.419   4.532  0.0391  0.6766  0.3406
18436THY    HP448206   7.183   5.573   4.506 -1.1269  0.0746 -0.1925
18436THY    CP348207   6.957   5.492   4.354  0.0606 -0.3758 -0.2633
18436THY    HP548208   6.856   5.450   4.352 -0.3514  2.6813  0.3897
18436THY    HP648209   7.003   5.476   4.256 -2.1517 -1.6334  0.5655
18436THY    HP748210   6.960   5.599   4.378  0.7817 -0.9600 -0.1414
18436THY    CA348211   6.879   5.463   4.642  0.1639 -0.4467  0.4327
18436THY    HA348212   6.848   5.547   4.580  2.2108  0.5316  2.0116
18436THY    CA448213   6.822   5.435   4.766 -0.3950  1.2787  0.0422
18436THY    HA448214   6.744   5.494   4.813  1.1887  1.9328  1.7399
18436THY    CA548215   6.859   5.319   4.835 -0.2687  0.3035 -0.6858
18436THY    CM148216   6.801   5.289   4.964  0.4596 -0.0381  0.3910
18436THY    HM148217   6.851   5.218   5.032 -0.4472  0.7784  0.5183
18436THY    HM248218   6.698   5.254   4.951 -0.7426  1.0595  3.2295
18436THY    HM348219   6.789   5.376   5.029  2.2344  2.1236 -0.8520
18436THY    CA648220   6.959   5.233   4.784  0.0289  0.1415 -0.3787
18436THY    HA648221   6.995   5.161   4.856  0.8378  0.4831  0.3490
18437THY      O48222   0.731   7.361   2.548 -0.5064  0.2655  0.0277
18437THY     HO48223   0.634   7.369   2.553 -0.4369 -0.4698  2.1348
18437THY    CA148224   0.754   7.273   2.443 -0.1717 -0.8836 -0.4562
18437THY    CA248225   0.876   7.270   2.372  0.0447  0.2415 -0.1506
18437THY    CP148226   0.999   7.315   2.441 -0.2189  0.0492 -0.2804
18437THY    HP148227   0.987   7.303   2.549  0.6399  0.0989 -0.8432
18437THY    CP248228   1.031   7.454   2.392  0.3041 -0.2299 -0.2322
18437THY    HP248229   0.938   7.510   2.379  0.1759 -0.9495 -0.5989
18437THY    HP348230   1.083   7.465   2.296 -0.7280 -0.8485 -0.6042
18437THY    HP448231   1.091   7.508   2.466  0.4216 -1.5701  1.5761
18437THY    CP348232   1.123   7.232   2.417 -0.1637 -0.6329 -0.5197
18437THY    HP548233   1.196   7.280   2.482 -1.6777 -0.4737  1.7050
18437THY    HP648234   1.158   7.240   2.314 -2.8138 -1.4594  2.1645
18437THY    HP748235   1.110   7.131   2.460  2.0648  1.1071 -0.1549
18437THY    CA348236   0.886   7.192   2.253 -0.0621  0.6996 -0.7739
18437THY    HA348237   0.977   7.175   2.197  0.6294  1.5838 -0.0421
18437THY    CA448238   0.772   7.122   2.213 -0.0637 -0.2828 -0.3168
18437THY    HA448239   0.770   7.070   2.117 -2.4813 -1.6910  2.1265
18437THY    CA548240   0.651   7.138   2.276  0.0117  0.2367 -0.4977
18437THY    CM148241   0.534   7.062   2.234  0.7489  0.0521 -0.1688
18437THY    HM148242   0.450   7.133   2.237  0.3766 -0.3934 -0.5825
18437THY    HM248243   0.516   6.970   2.291  0.1843 -1.0315 -0.7449
18437THY    HM348244   0.548   7.026   2.131  1.0645  0.2344 -0.5727
18437THY    CA648245   0.639   7.205   2.400  0.0749 -0.6616  0.1735
18437THY    HA648246   0.547   7.210   2.458 -0.6198 -1.7537  0.3202
18438THY      O48247   3.758   1.711   3.911 -0.4083 -0.3529 -0.5597
18438THY     HO48248   3.694   1.720   3.838 -0.4858 -0.1483  0.8655
18438THY    CA148249   3.737   1.605   3.995  0.1078 -0.5526 -0.6960
18438THY    CA248250   3.822   1.571   4.102 -0.5901 -0.1268  0.3513
18438THY    CP148251   3.926   1.675   4.149  0.0028 -0.4808 -0.6005
18438THY    HP148252   3.954   1.750   4.074 -1.4235  0.5822  1.1002
18438THY    CP248253   4.061   1.614   4.188  0.2359  0.1354 -0.1196
18438THY    HP248254   4.087   1.542   4.109 -1.1689 -2.4503  2.0207
18438THY    HP348255   4.048   1.567   4.286 -1.9113 -0.2831 -0.5399
18438THY    HP448256   4.140   1.689   4.195 -0.1185 -2.7535  0.6457
18438THY    CP348257   3.877   1.769   4.264  0.6783  0.5700  0.4907
18438THY    HP548258   3.859   1.715   4.357  2.2473  1.3549  1.2591
18438THY    HP648259   3.800   1.841   4.235 -1.1115  0.8791 -1.2147
18438THY    HP748260   3.964   1.834   4.279 -0.3746 -2.6960  2.9751
18438THY    CA348261   3.807   1.438   4.152 -0.2132  0.0757  0.5988
18438THY    HA348262   3.871   1.404   4.232 -0.9871  1.3604  2.0284
18438THY    CA448263   3.709   1.347   4.101 -0.4006 -0.4200  0.0714
18438THY    HA448264   3.703   1.246   4.140  0.3011 -2.4255 -0.7813
18438THY    CA548265   3.624   1.385   3.996  0.6724 -0.3104 -0.7234
18438THY    CM148266   3.523   1.288   3.944  0.6208 -0.3064 -0.4567
18438THY    HM148267   3.420   1.325   3.949  1.3757 -1.0471  1.8877
18438THY    HM248268   3.528   1.191   3.995  0.3791 -1.4805 -1.1125
18438THY    HM348269   3.540   1.258   3.840 -0.4867 -0.7736  0.4922
18438THY    CA648270   3.643   1.518   3.949 -0.2733 -0.4083  0.3138
18438THY    HA648271   3.595   1.541   3.854  0.7204 -1.7593 -2.6458
18439THY      O48272   4.358   3.980   7.375 -0.1471 -0.3320  0.3369
18439THY     HO48273   4.289   4.042   7.346  0.3528 -2.1583  0.0727
18439THY    CA148274   4.477   4.042   7.370 -0.2286  0.5283 -0.3677
18439THY    CA248275   4.597   3.981   7.325  0.7216  0.4126  0.3578
18439THY    CP148276   4.597   3.828   7.298 -0.4752  0.0215 -0.5624
18439THY    HP148277   4.497   3.800   7.262 -1.3445  1.4360  0.5863
18439THY    CP248278   4.632   3.757   7.432 -0.5032 -0.7286 -0.0533
18439THY    HP248279   4.727   3.798   7.470 -0.3499 -0.4682 -0.6444
18439THY    HP348280   4.640   3.649   7.415 -1.2287 -0.7416 -0.1054
18439THY    HP448281   4.556   3.771   7.509 -0.8846 -1.3386  1.3922
18439THY    CP348282   4.698   3.792   7.189 -0.6125  0.2127 -0.1281
18439THY    HP548283   4.804   3.775   7.209  0.2811 -2.7813  1.2463
18439THY    HP648284   4.675   3.853   7.101 -0.9343  1.3453  1.4405
18439THY    HP748285   4.675   3.692   7.150 -3.0951  2.1536 -0.4303
18439THY    CA348286   4.709   4.059   7.306  0.3688 -0.7994  0.7746
18439THY    HA348287   4.801   4.007   7.282  0.4233 -1.8255  1.3126
18439THY    CA448288   4.707   4.197   7.339  0.6809 -0.2951  0.4969
18439THY    HA448289   4.800   4.253   7.331  1.5018 -1.4122 -0.9414
18439THY    CA548290   4.583   4.258   7.379 -1.0144 -0.2856  0.8428
18439THY    CM148291   4.575   4.393   7.433  0.7311  0.3185 -0.2968
18439THY    HM148292   4.632   4.467   7.376  0.5525 -0.9816 -1.1315
18439THY    HM248293   4.607   4.395   7.538 -1.0331  0.9192 -1.5270
18439THY    HM348294   4.472   4.432   7.432  0.2611  0.0360 -1.4880
18439THY    CA648295   4.470   4.179   7.389  0.0326 -0.5219 -0.0293
18439THY    HA648296   4.378   4.214   7.435  0.1239 -0.6438  0.3805
18440THY      O48297   6.647   5.367   6.675 -0.1724 -0.1489 -0.5328
18440THY     HO48298   6.602   5.316   6.744 -1.0261 -0.7445 -0.5916
18440THY    CA148299   6.770   5.320   6.658 -0.0139  1.0544 -0.1497
18440THY    CA248300   6.870   5.377   6.581  0.5721  0.3586 -0.7557
18440THY    CP148301   6.856   5.512   6.503  0.0450  0.3665 -0.6080
18440THY    HP148302   6.764   5.559   6.540 -0.9337 -2.0645 -0.4443
18440THY    CP248303   6.854   5.500   6.340 -0.7499  0.0244 -0.6804
18440THY    HP248304   6.959   5.493   6.309 -0.5186 -0.1713  2.2386
18440THY    HP348305   6.808   5.590   6.297 -0.0582  1.5778  0.4635
18440THY    HP448306   6.796   5.411   6.314 -1.8835 -0.4208  0.1507
18440THY    CP348307   6.962   5.613   6.553 -0.2920  0.3339  0.3970
18440THY    HP548308   6.969   5.632   6.661  1.8801  0.1982  0.6806
18440THY    HP648309   6.946   5.713   6.510  1.3962 -0.4448  0.3627
18440THY    HP748310   7.062   5.576   6.527 -0.4031  0.5700 -0.0692
18440THY    CA348311   7.002   5.317   6.576  0.2120  0.0774 -0.8270
18440THY    HA348312   7.077   5.345   6.504  0.9917  1.5176  0.9990
18440THY    CA448313   7.037   5.210   6.663  0.0004  0.3756 -0.7276
18440THY    HA448314   7.135   5.164   6.667  0.7063 -0.0804  0.7055
18440THY    CA548315   6.932   5.166   6.751 -0.5973  0.8775  0.0088
18440THY    CM148316   6.958   5.054   6.862 -0.1829 -0.5187 -0.3540
18440THY    HM148317   7.056   5.008   6.847  1.5614 -0.6762  3.0309
18440THY    HM248318   6.881   4.977   6.859 -1.2963 -0.9447  0.7303
18440THY    HM348319   6.951   5.097   6.962  1.8831 -0.6173  0.3070
18440THY    CA648320   6.805   5.215   6.740  0.6165  0.8859 -0.9033
18440THY    HA648321   6.725   5.173   6.800 -2.8784 -2.2041  0.7109
18441THY      O48322   3.744   5.540   6.837 -0.2572  0.5889  0.4268
18441THY     HO48323   3.681   5.558   6.765 -0.4303  0.8673  0.9647
18441THY    CA148324   3.693   5.439   6.917 -0.6128 -0.0799  0.6157
18441THY    CA248325   3.769   5.360   7.011  0.1968 -0.4193  0.4837
18441THY    CP148326   3.909   5.400   7.057  0.1061 -0.5445 -0.2641
18441THY    HP148327   3.940   5.479   6.988 -2.2370  0.0550  1.2865
18441THY    CP248328   4.016   5.287   7.057 -0.1027  0.1503 -0.3038
18441THY    HP248329   3.995   5.209   7.131 -2.2459  1.5745  1.5021
18441THY    HP348330   4.111   5.331   7.088  0.5897  0.9230 -2.2375
18441THY    HP448331   4.031   5.238   6.960 -0.5952  0.2746 -0.7085
18441THY    CP348332   3.916   5.465   7.193 -0.0362 -0.1548  0.2095
18441THY    HP548333   4.015   5.506   7.215  0.9237 -0.6816 -1.7366
18441THY    HP648334   3.896   5.392   7.272 -0.3014 -1.3673 -1.0772
18441THY    HP748335   3.845   5.549   7.200  0.3260 -0.7128  0.5673
18441THY    CA348336   3.703   5.252   7.072  0.3860 -0.1016 -0.5163
18441THY    HA348337   3.761   5.184   7.134  0.9669 -1.5596 -1.4122
18441THY    CA448338   3.573   5.219   7.032 -0.5116 -0.9120  0.3787
18441THY    HA448339   3.521   5.133   7.073 -0.5343  1.2675  1.3519
18441THY    CA548340   3.507   5.290   6.937  1.1503  0.1087 -0.8353
18441THY    CM148341   3.374   5.234   6.891 -0.3636  0.2481  0.1402
18441THY    HM148342   3.330   5.266   6.796 -1.1592  0.8213  0.7966
18441THY    HM248343   3.306   5.252   6.975  1.4137  1.6518  0.6187
18441THY    HM348344   3.384   5.126   6.871 -0.4145  1.1445 -0.0412
18441THY    CA648345   3.566   5.395   6.875 -0.8042  0.0403  0.4125
18441THY    HA648346   3.495   5.445   6.809 -0.1402 -1.3337 -0.4031
18442THY      O48347   6.324   4.261   3.101 -0.2783 -0.5638  0.2002
18442THY     HO48348   6.322   4.310   3.017  1.7046  0.0831  1.5270
18442THY    CA148349   6.383   4.141   3.086  0.5886  0.4818  0.2807
18442THY    CA248350   6.373   4.032   3.178 -0.3162 -0.2525 -0.2020
18442THY    CP148351   6.296   4.058   3.304  0.0455  0.2170  0.4560
18442THY    HP148352   6.259   4.160   3.316  0.0617 -2.9372  0.9342
18442THY    CP248353   6.390   4.030   3.426 -0.3151  0.8482  0.5417
18442THY    HP248354   6.463   4.111   3.429 -1.6167  0.5435  1.7733
18442THY    HP348355   6.442   3.933   3.421 -1.0602 -1.0792  0.1896
18442THY    HP448356   6.334   4.042   3.519 -3.3243 -0.4974 -1.5434
18442THY    CP348357   6.175   3.958   3.310  0.3176  0.2593  0.0926
18442THY    HP548358   6.216   3.856   3.308  1.8597  0.9851  0.6811
18442THY    HP648359   6.104   3.954   3.226  2.2544 -1.4775  0.5104
18442THY    HP748360   6.131   3.981   3.407  1.6970  0.5974  1.4850
18442THY    CA348361   6.426   3.906   3.151 -0.4859  0.2559  0.1737
18442THY    HA348362   6.414   3.818   3.214  1.3151 -0.4759 -0.6497
18442THY    CA448363   6.496   3.887   3.035 -0.2497 -0.5512  0.2501
18442THY    HA448364   6.532   3.787   3.012 -3.0446 -0.3317 -0.9107
18442THY    CA548365   6.521   3.998   2.948  0.5602 -0.4355 -0.8993
18442THY    CM148366   6.617   3.979   2.840 -0.4702 -0.3328  0.5095
18442THY    HM148367   6.709   4.031   2.868 -0.1798  1.0565 -0.6811
18442THY    HM248368   6.584   4.016   2.742  1.2577 -1.0425  0.2648
18442THY    HM348369   6.642   3.873   2.831  0.0664  1.1326  0.4867
18442THY    CA648370   6.459   4.126   2.971  1.0131  0.3526 -0.1589
18442THY    HA648371   6.481   4.220   2.922  1.3494 -1.4262 -1.1269
18443THY      O48372   2.928   6.517   4.113 -0.7066 -0.1289 -0.1887
18443THY     HO48373   3.009   6.528   4.060 -0.5837  0.2041  0.6712
18443THY    CA148374   2.941   6.620   4.204  0.0280  0.5875  0.2064
18443THY    CA248375   2.904   6.605   4.345 -0.3082  0.9502 -0.1246
18443THY    CP148376   2.837   6.484   4.404 -0.1009  0.2247  0.2037
18443THY    HP148377   2.815   6.412   4.325 -0.2009 -1.0716  1.6085
18443THY    CP248378   2.697   6.529   4.460 -0.2552  0.9450 -0.4804
18443THY    HP248379   2.631   6.575   4.385  0.9730  1.0267  1.5273
18443THY    HP348380   2.704   6.598   4.545 -1.0457  1.6808 -1.2809
18443THY    HP448381   2.648   6.436   4.492  2.2897 -0.7791 -2.5485
18443THY    CP348382   2.913   6.418   4.513 -0.4048 -0.4323  0.3475
18443THY    HP548383   2.908   6.486   4.599  4.2012  1.2732 -1.0931
18443THY    HP648384   3.013   6.398   4.472 -0.2527  0.4375 -0.7352
18443THY    HP748385   2.875   6.319   4.537  1.6717  1.0295 -0.1585
18443THY    CA348386   2.923   6.722   4.424 -0.0106  0.1261 -0.1242
18443THY    HA348387   2.897   6.724   4.530  2.1143  0.7976 -2.5220
18443THY    CA448388   2.995   6.831   4.375 -0.3318  0.4391 -0.7051
18443THY    HA448389   3.017   6.918   4.437  0.8622  1.0287 -1.3960
18443THY    CA548390   3.040   6.839   4.238 -0.3347 -0.3171  0.7770
18443THY    CM148391   3.117   6.952   4.186 -0.1291  0.3100 -0.4799
18443THY    HM148392   3.060   7.006   4.108 -0.2388  0.8848  0.2475
18443THY    HM248393   3.220   6.927   4.158  0.4586  1.4728  0.5520
18443THY    HM348394   3.128   7.024   4.268  1.4833  0.1950 -0.5686
18443THY    CA648395   3.013   6.733   4.153  0.0567 -0.5864 -0.1976
18443THY    HA648396   3.045   6.742   4.050  0.6802 -0.2973  1.2367
18444THY      O48397   7.081   7.529   5.699  0.0015 -0.0637 -0.1027
18444THY     HO48398   6.989   7.557   5.683  0.0674  1.6764  1.3214
18444THY    CA148399   7.150   7.545   5.582 -0.3104  0.5198  0.5829
18444THY    CA248400   7.294   7.561   5.581 -0.0620  0.5076  0.0059
18444THY    CP148401   7.369   7.553   5.716  0.4356  0.6251 -0.0176
18444THY    HP148402   7.314   7.489   5.785  0.9558  0.4077 -0.7182
18444THY    CP248403   7.375   7.697   5.766 -0.4718  0.8034 -0.7160
18444THY    HP248404   7.397   7.700   5.874  0.2659  0.6272  1.4803
18444THY    HP348405   7.279   7.747   5.750  0.7199 -1.3866  1.0323
18444THY    HP448406   7.445   7.759   5.710 -2.2412 -0.8171 -0.0728
18444THY    CP348407   7.510   7.492   5.722  0.0750  0.4778 -0.9050
18444THY    HP548408   7.563   7.535   5.637 -1.9785  0.5355  2.0536
18444THY    HP648409   7.507   7.384   5.703 -1.7417 -0.1808 -0.7722
18444THY    HP748410   7.556   7.526   5.816 -1.9463  1.8242 -1.6956
18444THY    CA348411   7.359   7.602   5.458 -0.0602  0.1705 -0.3995
18444THY    HA348412   7.467   7.607   5.453  0.1032  1.9754 -1.3173
18444THY    CA448413   7.290   7.613   5.339  0.0045 -0.7359  0.0876
18444THY    HA448414   7.347   7.640   5.251  4.5119  1.6928 -0.5499
18444THY    CA548415   7.154   7.581   5.344  0.5373  0.2392 -0.5772
18444THY    CM148416   7.076   7.601   5.215  0.4045 -0.1932  1.2781
18444THY    HM148417   7.137   7.655   5.142  0.8376 -0.2289  0.7448
18444THY    HM248418   6.978   7.648   5.231  0.1710 -0.1783  0.7851
18444THY    HM348419   7.062   7.503   5.169  0.3211  0.6674  0.8706
18444THY    CA648420   7.087   7.557   5.462 -0.0183  0.2069 -0.2085
18444THY    HA648421   6.979   7.564   5.451  0.2634 -2.8852  0.7478
18445THY      O48422   0.455   0.687   4.853  0.5324  0.1553  0.2875
18445THY     HO48423   0.490   0.769   4.813 -0.3505 -0.9288  0.1548
18445THY    CA148424   0.364   0.710   4.954  0.0486  0.8591  0.9653
18445THY    CA248425   0.288   0.610   5.007  0.5082 -0.1904 -0.3153
18445THY    CP148426   0.291   0.469   4.945 -0.4866  0.1793 -0.0076
18445THY    HP148427   0.320   0.478   4.840 -1.1077  0.1673  2.5116
18445THY    CP248428   0.147   0.400   4.949 -0.3335 -0.1460  1.0167
18445THY    HP248429   0.167   0.296   4.922 -1.0260  3.1498 -0.0737
18445THY    HP348430   0.059   0.441   4.897 -1.2041  0.3500 -0.1894
18445THY    HP448431   0.123   0.396   5.056 -0.5895 -0.2442 -1.1319
18445THY    CP348432   0.377   0.377   5.034 -1.2635  0.3850  0.1369
18445THY    HP548433   0.384   0.279   4.986 -1.6456  0.6925 -0.0407
18445THY    HP648434   0.337   0.355   5.133 -0.0680  0.4989 -1.6984
18445THY    HP748435   0.478   0.420   5.043 -0.8937  1.5024 -0.9141
18445THY    CA348436   0.222   0.629   5.133 -1.1140  0.3747  0.4601
18445THY    HA348437   0.164   0.551   5.181 -1.6999 -2.7545 -1.1623
18445THY    CA448438   0.224   0.762   5.189  0.0470  0.3888  0.6543
18445THY    HA448439   0.179   0.784   5.286 -0.2591  0.5729 -0.6849
18445THY    CA548440   0.301   0.860   5.127 -0.9736  0.1546 -0.1851
18445THY    CM148441   0.324   0.997   5.186 -0.1445  0.0049  0.2547
18445THY    HM148442   0.232   1.057   5.188  0.9436  1.4084  1.9793
18445THY    HM248443   0.407   1.054   5.143 -0.0935 -0.8700 -0.4563
18445THY    HM348444   0.345   0.989   5.294  0.2329  0.0649  1.6994
18445THY    CA648445   0.364   0.837   5.007 -0.1473 -0.8393 -0.0662
18445THY    HA648446   0.436   0.907   4.965 -0.5571 -0.1842  0.7587
18446THY      O48447   1.746   6.429   2.215  0.2605  0.1321  0.3973
18446THY     HO48448   1.723   6.511   2.262  0.5769 -0.8156  1.0479
18446THY    CA148449   1.814   6.480   2.115 -0.8017 -0.2261  0.4575
18446THY    CA248450   1.801   6.430   1.979 -0.5312  0.1428  0.0288
18446THY    CP148451   1.704   6.312   1.949 -0.3028  0.1989 -0.1089
18446THY    HP148452   1.640   6.292   2.036 -0.8098 -0.1689 -0.1021
18446THY    CP248453   1.761   6.179   1.908  0.1436  0.3096  0.2484
18446THY    HP248454   1.819   6.192   1.816 -0.2637 -0.2564 -1.6583
18446THY    HP348455   1.684   6.106   1.882 -2.0932  0.3901  2.4176
18446THY    HP448456   1.827   6.145   1.989  0.0512  0.5136  0.5410
18446THY    CP348457   1.603   6.361   1.847 -0.8676 -0.3738  0.1241
18446THY    HP548458   1.508   6.306   1.856 -0.2782  0.5350 -0.7938
18446THY    HP648459   1.634   6.348   1.743 -1.9432 -0.9701  2.0063
18446THY    HP748460   1.580   6.467   1.859  1.1530  0.2780  0.5231
18446THY    CA348461   1.873   6.495   1.869  0.3626 -0.7800  0.4236
18446THY    HA348462   1.865   6.473   1.763 -0.4786 -0.6948  0.2989
18446THY    CA448463   1.945   6.612   1.908  0.2737  0.0228 -0.5919
18446THY    HA448464   2.000   6.659   1.828  1.2890  0.9488 -0.1733
18446THY    CA548465   1.964   6.650   2.039 -0.0668 -0.5914 -0.2836
18446THY    CM148466   2.043   6.767   2.069  0.0243 -0.0272  0.3904
18446THY    HM148467   2.019   6.852   2.003  2.8164 -0.5199  0.8711
18446THY    HM248468   2.150   6.750   2.053  0.1549  1.3889 -0.2753
18446THY    HM348469   2.031   6.804   2.171  4.8066  0.3333  1.5164
18446THY    CA648470   1.900   6.582   2.141  0.6407  0.6896  0.3681
18446THY    HA648471   1.911   6.622   2.241 -2.2320  0.6806  1.3809
18447THY      O48472   1.537   7.879   7.620 -0.3727  0.4677  0.3166
18447THY     HO48473   1.627   7.846   7.636  0.0927  2.1132  2.1974
18447THY    CA148474   1.501   7.958   7.726  0.0506 -0.7122  0.5823
18447THY    CA248475   1.386   8.042   7.723  0.2337 -0.2156  0.3907
18447THY    CP148476   1.294   8.021   7.598  0.1147  0.3044  0.2415
18447THY    HP148477   1.356   7.986   7.515 -2.2236 -0.6191 -2.0413
18447THY    CP248478   1.224   8.153   7.548 -0.0774  0.3054 -0.0928
18447THY    HP248479   1.152   8.133   7.469 -2.0730  2.3835 -1.6430
18447THY    HP348480   1.300   8.219   7.503 -2.8221 -1.6528  1.9852
18447THY    HP448481   1.174   8.201   7.633  1.6944  0.2228  2.0709
18447THY    CP348482   1.187   7.919   7.636  0.0449 -0.2554 -0.3401
18447THY    HP548483   1.124   7.883   7.553 -2.3999 -0.5300  3.8936
18447THY    HP648484   1.124   7.974   7.707 -1.3964 -2.8371  1.6236
18447THY    HP748485   1.244   7.841   7.688 -0.7747 -0.3130 -0.9898
18447THY    CA348486   1.355   8.133   7.829  1.0571  0.0369 -0.3559
18447THY    HA348487   1.265   8.194   7.827  0.9515 -0.0119 -0.5120
18447THY    CA448488   1.442   8.144   7.931 -0.2438 -0.9840  0.2072
18447THY    HA448489   1.428   8.224   8.004  1.7097 -0.0825 -0.2170
18447THY    CA548490   1.568   8.076   7.930  0.0898  0.5462 -0.8770
18447THY    CM148491   1.682   8.102   8.028  0.6834 -0.0396  0.4756
18447THY    HM148492   1.673   8.010   8.088 -2.1535 -1.7075 -0.4658
18447THY    HM248493   1.663   8.190   8.090  0.8652  0.5875  0.0787
18447THY    HM348494   1.775   8.120   7.973  1.6490  1.8165  1.4048
18447THY    CA648495   1.593   7.979   7.830  0.0509  0.5919  0.3414
18447THY    HA648496   1.694   7.937   7.833  0.4350  0.8698  1.2599
18448THY      O48497   6.924   6.815   6.889  0.4497  0.5422  0.0735
18448THY     HO48498   7.010   6.859   6.878 -0.7764 -1.0918  2.2547
18448THY    CA148499   6.862   6.868   6.998 -0.0286  0.1131  0.1036
18448THY    CA248500   6.720   6.879   7.009 -0.9621  0.0760  0.0171
18448THY    CP148501   6.634   6.818   6.896 -0.1915  0.1131 -0.1436
18448THY    HP148502   6.682   6.738   6.839 -1.3771 -0.6886 -0.3070
18448THY    CP248503   6.580   6.929   6.801 -0.8135 -0.2450  1.0110
18448THY    HP248504   6.660   6.940   6.727  0.5828  0.6841 -1.8747
18448THY    HP348505   6.573   7.020   6.861  1.2668 -0.4683  1.3707
18448THY    HP448506   6.487   6.908   6.748 -1.0861  0.7685 -0.4999
18448THY    CP348507   6.510   6.737   6.952 -0.1531 -0.6538 -0.3201
18448THY    HP548508   6.466   6.674   6.874  0.5821 -0.7012 -0.7948
18448THY    HP648509   6.437   6.811   6.985  0.3875 -0.1870  0.0172
18448THY    HP748510   6.544   6.676   7.037  0.6526 -0.9980 -0.3707
18448THY    CA348511   6.666   6.927   7.133  0.2286  0.0843 -0.5026
18448THY    HA348512   6.558   6.933   7.146  0.4061  1.0680  0.9403
18448THY    CA448513   6.751   6.969   7.238 -0.3006  0.5494 -0.6849
18448THY    HA448514   6.714   7.012   7.330  1.7910  0.5605  1.3390
18448THY    CA548515   6.889   6.954   7.223 -0.7431  0.2449 -0.5737
18448THY    CM148516   6.980   6.989   7.334 -0.3365 -0.4709  0.2316
18448THY    HM148517   6.965   7.090   7.374  0.4157  1.8955 -0.5512
18448THY    HM248518   7.087   6.971   7.321  0.1728  1.3531  1.6580
18448THY    HM348519   6.966   6.913   7.411  3.3637  0.4535  0.3475
18448THY    CA648520   6.942   6.902   7.110  0.5111  0.4595  0.0242
18448THY    HA648521   7.050   6.889   7.110  0.7813 -1.5665  1.6952
18449THY      O48522   0.269   2.958   2.925 -0.1398  0.5219 -0.2379
18449THY     HO48523   0.297   3.026   2.988  1.0667 -0.8386  0.5788
18449THY    CA148524   0.348   2.847   2.957 -0.3873 -0.4899  0.0959
18449THY    CA248525   0.326   2.718   2.892  0.0821 -0.1494 -1.4503
18449THY    CP148526   0.222   2.700   2.780  0.7347  0.2899 -0.7050
18449THY    HP148527   0.176   2.798   2.762  2.5260 -0.4630  0.0342
18449THY    CP248528   0.107   2.606   2.811 -0.1891  0.2278  1.0081
18449THY    HP248529   0.037   2.632   2.892 -0.5118  0.5093 -0.6006
18449THY    HP348530   0.138   2.502   2.827  0.5574 -1.7863  0.8853
18449THY    HP448531   0.029   2.611   2.735 -1.8279  1.6936 -0.6167
18449THY    CP348532   0.277   2.692   2.637  0.2702 -0.1340  0.2382
18449THY    HP548533   0.212   2.704   2.550 -1.8380  1.1889 -0.8893
18449THY    HP648534   0.321   2.592   2.623  0.0385 -1.2966  0.2822
18449THY    HP748535   0.363   2.758   2.625  0.6418  0.9182 -0.0281
18449THY    CA348536   0.412   2.615   2.921  0.6115 -0.6755  0.2657
18449THY    HA348537   0.407   2.515   2.879  0.3916 -1.5884  0.6450
18449THY    CA448538   0.521   2.638   3.008  0.1151  0.1473 -0.1739
18449THY    HA448539   0.599   2.564   3.006 -0.0229 -0.5933 -0.2984
18449THY    CA548540   0.532   2.763   3.071 -0.5135 -0.9579 -0.0820
18449THY    CM148541   0.648   2.777   3.168  0.3278  0.7929  0.3190
18449THY    HM148542   0.604   2.788   3.268 -0.1355  0.7905 -1.2083
18449THY    HM248543   0.703   2.869   3.149 -2.2116 -0.4600  1.6666
18449THY    HM348544   0.713   2.688   3.170  0.9611 -2.3385  0.6244
18449THY    CA648545   0.451   2.868   3.048  0.2359 -0.3541 -0.0468
18449THY    HA648546   0.465   2.955   3.111  2.7923 -1.6225  0.5543
18450THY      O48547   7.901   2.018   2.928 -0.4585 -0.1575 -0.2061
18450THY     HO48548   7.841   2.094   2.910 -0.8527  2.4600  0.2054
18450THY    CA148549   8.030   2.057   2.906  0.0639  0.2395 -0.6634
18450THY    CA248550   8.129   1.959   2.869  0.8596 -0.4716 -0.2293
18450THY    CP148551   8.089   1.803   2.863  0.3112 -0.2624 -0.6386
18450THY    HP148552   7.994   1.783   2.915 -0.6575 -1.1566  1.2964
18450THY    CP248553   8.191   1.732   2.939  0.4000  0.2001  0.4953
18450THY    HP248554   8.172   1.624   2.928 -4.5882 -2.4472  1.3574
18450THY    HP348555   8.181   1.759   3.045  0.5747  0.5622 -0.7789
18450THY    HP448556   8.293   1.751   2.903  0.6420  1.0786  0.9598
18450THY    CP348557   8.067   1.752   2.721  0.5560  0.4289 -0.2747
18450THY    HP548558   8.051   1.643   2.722  1.1696  0.6545 -0.3645
18450THY    HP648559   8.155   1.758   2.656  0.3849  0.2178 -0.0744
18450THY    HP748560   7.978   1.801   2.682 -0.5647  0.1053 -2.4341
18450THY    CA348561   8.257   2.003   2.832 -0.5803 -0.0081 -0.2287
18450THY    HA348562   8.329   1.932   2.794  0.3724  0.1820  0.6172
18450THY    CA448563   8.290   2.139   2.831  0.1039 -0.2060  0.0347
18450THY    HA448564   8.387   2.171   2.794 -0.1590 -1.3425 -0.4467
18450THY    CA548565   8.196   2.229   2.867  0.0302  0.0684 -0.2606
18450THY    CM148566   8.224   2.377   2.866 -0.6620  0.6936 -0.2184
18450THY    HM148567   8.329   2.407   2.864 -0.7612 -1.7958  0.1486
18450THY    HM248568   8.180   2.420   2.957 -1.6559  0.6295 -1.0538
18450THY    HM348569   8.171   2.424   2.783  0.2996 -0.5946 -1.3436
18450THY    CA648570   8.066   2.190   2.898  0.3826 -0.0199  0.2964
18450THY    HA648571   7.986   2.262   2.918  0.5379  0.8739  0.2329
18451THY      O48572   1.981   2.961   2.642 -1.2639 -0.3805  0.5336
18451THY     HO48573   1.996   2.980   2.736  1.8126 -0.0212 -2.5420
18451THY    CA148574   2.105   2.988   2.584 -0.5696  0.2000 -0.0560
18451THY    CA248575   2.135   2.979   2.453  0.5205  0.0904 -0.2165
18451THY    CP148576   2.031   2.933   2.352  0.1862 -0.2535  0.0515
18451THY    HP148577   1.941   2.891   2.400 -0.2912 -3.2760 -2.8085
18451THY    CP248578   2.076   2.818   2.268  0.1775  0.2330 -0.3289
18451THY    HP248579   2.094   2.724   2.321 -2.0862 -0.4911 -1.2291
18451THY    HP348580   2.171   2.843   2.219  0.3645  1.4318  1.5205
18451THY    HP448581   1.999   2.781   2.199 -0.9291  1.3270 -0.1224
18451THY    CP348582   1.990   3.053   2.264 -0.4654 -0.3792  0.4193
18451THY    HP548583   2.081   3.102   2.229 -0.7436 -0.3627  0.9557
18451THY    HP648584   1.935   3.125   2.325 -1.8236  0.0158 -0.8965
18451THY    HP748585   1.924   3.035   2.178  1.6321 -2.0549  0.3891
18451THY    CA348586   2.262   3.023   2.408 -0.5042 -0.5966 -0.3283
18451THY    HA348587   2.295   3.013   2.305  1.4599 -0.2148  1.3754
18451THY    CA448588   2.355   3.063   2.502 -0.2393 -0.3969  0.0024
18451THY    HA448589   2.456   3.083   2.469 -0.2275  0.4497  1.4989
18451THY    CA548590   2.329   3.075   2.639 -0.5467  0.4438  0.0837
18451THY    CM148591   2.434   3.109   2.730 -0.3843 -0.2302  0.1609
18451THY    HM148592   2.504   3.182   2.689  0.3804  0.6840 -0.0263
18451THY    HM248593   2.484   3.011   2.739  0.1116 -2.7816  0.1090
18451THY    HM348594   2.403   3.146   2.828  1.5584  0.2073  0.7795
18451THY    CA648595   2.199   3.039   2.679 -0.0627 -0.7969  0.6094
18451THY    HA648596   2.167   3.044   2.783 -1.9645 -1.3334  0.6304
18452THY      O48597   4.425   1.075   3.809 -0.0459 -0.1580 -0.2665
18452THY     HO48598   4.421   1.051   3.903 -0.3235  0.7231  2.7354
18452THY    CA148599   4.549   1.125   3.798 -0.0301  0.0695  0.3824
18452THY    CA248600   4.627   1.089   3.689  0.1776  0.4061 -0.3449
18452THY    CP148601   4.575   0.995   3.580 -0.6383  0.3222 -0.4998
18452THY    HP148602   4.466   0.993   3.586 -0.8421 -1.3148  1.5186
18452THY    CP248603   4.633   0.851   3.587 -0.3122 -0.0045  0.1548
18452THY    HP248604   4.742   0.864   3.588 -0.0759 -3.7838 -0.3972
18452THY    HP348605   4.604   0.780   3.508 -1.8763 -0.9135  1.7320
18452THY    HP448606   4.602   0.811   3.684  2.3814  1.9829  2.5046
18452THY    CP348607   4.599   1.047   3.436  0.3933  0.0860 -0.1569
18452THY    HP548608   4.561   1.148   3.414  0.2793 -3.1126 -0.7790
18452THY    HP648609   4.560   0.985   3.355 -3.1830  0.3079  1.5398
18452THY    HP748610   4.707   1.040   3.418  0.1745 -2.4149  1.3940
18452THY    CA348611   4.755   1.139   3.679  0.8623 -0.1322  1.0320
18452THY    HA348612   4.815   1.109   3.594 -0.3524 -0.5010 -0.4783
18452THY    CA448613   4.803   1.225   3.781  0.4117  0.3220  0.2438
18452THY    HA448614   4.902   1.268   3.768 -0.4013 -2.9699  1.4785
18452THY    CA548615   4.722   1.261   3.889  0.4664 -0.4171  0.4317
18452THY    CM148616   4.761   1.361   4.001 -0.1403  0.2091 -0.4095
18452THY    HM148617   4.868   1.373   4.020 -0.1612  0.4621 -0.6268
18452THY    HM248618   4.708   1.342   4.095 -1.7673 -0.8596 -1.5032
18452THY    HM348619   4.715   1.457   3.971 -3.4240  2.7882 -0.9848
18452THY    CA648620   4.597   1.204   3.902  0.5600 -0.2327 -0.3300
18452THY    HA648621   4.527   1.239   3.977  0.8021  0.9490 -2.2422
18453THY      O48622   1.138   7.890   5.073  0.2983  1.2725  0.0083
18453THY     HO48623   1.047   7.865   5.093  0.6793  2.8161 -0.2777
18453THY    CA148624   1.154   8.022   5.089  0.4312 -0.5310 -0.3271
18453THY    CA248625   1.279   8.074   5.079  0.0993 -0.0729 -0.0620
18453THY    CP148626   1.404   7.988   5.047 -0.5935  0.7733  0.5087
18453THY    HP148627   1.399   7.891   5.097 -0.0607  1.8635  1.0216
18453THY    CP248628   1.526   8.047   5.115 -0.6924 -0.1587 -0.0638
18453THY    HP248629   1.609   7.977   5.103  1.4476  3.4314  1.5639
18453THY    HP348630   1.510   8.070   5.221 -1.2813 -0.5576  1.4887
18453THY    HP448631   1.551   8.145   5.072 -1.8784  1.4793  1.0186
18453THY    CP348632   1.423   7.967   4.898 -0.5076 -0.3800  0.5070
18453THY    HP548633   1.500   7.891   4.887 -0.5736 -0.0171  0.3829
18453THY    HP648634   1.469   8.049   4.842 -0.6298 -1.3942 -0.1028
18453THY    HP748635   1.322   7.941   4.863 -0.3884  0.0910 -0.6553
18453THY    CA348636   1.285   8.216   5.101 -0.6590 -0.2444  0.2500
18453THY    HA348637   1.381   8.267   5.093  0.1829  2.2689 -0.8040
18453THY    CA448638   1.165   8.290   5.137 -0.1674 -0.2605  0.0532
18453THY    HA448639   1.183   8.396   5.153  2.1068  2.1270 -0.5919
18453THY    CA548640   1.041   8.233   5.149 -0.1374  0.0298  0.1941
18453THY    CM148641   0.913   8.308   5.184  0.1373 -0.4794  0.5443
18453THY    HM148642   0.917   8.341   5.288  0.8261 -0.4096  0.2650
18453THY    HM248643   0.821   8.249   5.177  1.1487  0.6632 -1.3086
18453THY    HM348644   0.903   8.391   5.114  1.1665 -0.7588  0.4484
18453THY    CA648645   1.045   8.091   5.129  0.2713 -0.5901 -0.2575
18453THY    HA648646   0.949   8.041   5.134  0.4863  1.2377 -0.5690
18454THY      O48647   2.168   4.365   7.889 -0.1552 -0.7657  0.5523
18454THY     HO48648   2.237   4.434   7.884  0.8668  1.0306 -0.2739
18454THY    CA148649   2.109   4.348   7.773 -0.6196  1.3681  0.6132
18454THY    CA248650   2.014   4.244   7.745  0.1846  0.1439  0.1273
18454THY    CP148651   1.959   4.148   7.857  0.1604  0.1020 -0.3779
18454THY    HP148652   2.019   4.160   7.948  1.4745 -0.3535 -2.7926
18454THY    CP248653   1.973   4.002   7.813  0.5589 -0.2007 -0.5486
18454THY    HP248654   1.965   3.941   7.903 -2.3473 -1.4348 -2.2028
18454THY    HP348655   2.064   3.988   7.754 -0.1159 -1.5254  0.3995
18454THY    HP448656   1.892   3.964   7.748 -0.1227  0.8757 -0.9855
18454THY    CP348657   1.809   4.176   7.889 -0.3724 -0.1160 -0.2389
18454THY    HP548658   1.791   4.278   7.926 -0.0518  2.1718 -0.9410
18454THY    HP648659   1.776   4.105   7.967  2.0983 -0.1760 -1.5775
18454THY    HP748660   1.748   4.155   7.800 -1.6774  1.2862 -2.9516
18454THY    CA348661   1.981   4.225   7.608  0.4208 -0.1177  0.0526
18454THY    HA348662   1.924   4.141   7.569  1.2008 -2.7450  0.6463
18454THY    CA448663   2.025   4.313   7.514  0.4116  0.5189 -0.0025
18454THY    HA448664   1.979   4.310   7.416 -0.8557  1.0297  1.3781
18454THY    CA548665   2.115   4.419   7.544 -0.0176  0.6156  0.0027
18454THY    CM148666   2.167   4.519   7.444  0.6344  0.1620  0.8849
18454THY    HM148667   2.259   4.565   7.481  0.1152  1.6738  0.7810
18454THY    HM248668   2.099   4.601   7.416  0.0293 -0.8734  0.0473
18454THY    HM348669   2.196   4.461   7.356  1.0980  1.5345 -1.0515
18454THY    CA648670   2.161   4.427   7.675 -0.3002 -0.1016  0.1830
18454THY    HA648671   2.229   4.510   7.695 -0.7898 -1.6138  0.9884
18455THY      O48672   8.161   0.540   5.095  0.5799  0.1525  0.1004
18455THY     HO48673   8.074   0.580   5.077  0.1686  2.8322  0.6122
18455THY    CA148674   8.240   0.649   5.125  0.3856 -0.2953  0.0458
18455THY    CA248675   8.364   0.642   5.182  0.1979  0.6961 -0.4659
18455THY    CP148676   8.427   0.512   5.223  0.0029 -0.2533  0.4866
18455THY    HP148677   8.354   0.444   5.269 -0.1202 -1.6564 -0.3635
18455THY    CP248678   8.544   0.522   5.323 -0.2641 -0.2175  0.4205
18455THY    HP248679   8.636   0.566   5.283 -0.5203  0.2483  1.3995
18455THY    HP348680   8.567   0.427   5.373 -0.2345 -0.4464  0.3078
18455THY    HP448681   8.504   0.581   5.407 -1.4488 -0.8473  0.5429
18455THY    CP348682   8.489   0.446   5.093  0.4974  0.0127 -1.0433
18455THY    HP548683   8.570   0.508   5.052 -1.2384 -0.9029  0.7280
18455THY    HP648684   8.404   0.432   5.026 -0.2824  0.6650  0.3071
18455THY    HP748685   8.534   0.349   5.117 -0.4187 -0.8504 -1.6964
18455THY    CA348686   8.440   0.765   5.194 -0.1655  0.6613 -0.3491
18455THY    HA348687   8.540   0.763   5.235  0.6106 -1.1715 -0.9533
18455THY    CA448688   8.381   0.888   5.152  0.1109  0.2761  0.7524
18455THY    HA448689   8.420   0.986   5.177 -0.4684  0.0689  1.0437
18455THY    CA548690   8.252   0.885   5.102 -0.9814  0.1274  0.1816
18455THY    CM148691   8.184   1.015   5.064 -0.2336 -0.2280 -0.2237
18455THY    HM148692   8.261   1.088   5.036 -1.8388 -0.0515  1.6207
18455THY    HM248693   8.132   1.059   5.150  0.3707  0.4778 -0.8685
18455THY    HM348694   8.113   1.016   4.981 -0.9607  0.2729  3.5335
18455THY    CA648695   8.181   0.768   5.092 -0.5283  0.1303 -0.2365
18455THY    HA648696   8.083   0.766   5.047 -0.6043  0.3068 -0.4620
18456THY      O48697   2.552   0.907   1.734  0.0105 -0.5395 -0.9481
18456THY     HO48698   2.516   0.837   1.676  0.6475 -1.4569 -0.5436
18456THY    CA148699   2.442   0.980   1.769 -0.4946  0.0484 -0.1863
18456THY    CA248700   2.441   1.118   1.755  0.2066 -0.1196 -0.1704
18456THY    CP148701   2.566   1.192   1.710  0.0307  0.2732  0.6155
18456THY    HP148702   2.641   1.123   1.669 -0.2817  1.0599 -0.2142
18456THY    CP248703   2.641   1.267   1.823  0.4154 -0.8207 -0.6678
18456THY    HP248704   2.746   1.288   1.802  0.4371  0.3865  0.5418
18456THY    HP348705   2.633   1.208   1.916  1.9278 -0.0341  0.3169
18456THY    HP448706   2.582   1.356   1.848  0.2069  1.2291 -1.3152
18456THY    CP348707   2.538   1.290   1.593 -0.2831  0.1005 -0.7323
18456THY    HP548708   2.632   1.306   1.538 -1.6197 -1.7687  1.1510
18456THY    HP648709   2.489   1.387   1.604  1.0691 -3.4557  0.5362
18456THY    HP748710   2.462   1.238   1.533 -0.2819  1.1581 -2.0277
18456THY    CA348711   2.321   1.185   1.796 -0.1722  0.1904 -0.2927
18456THY    HA348712   2.323   1.294   1.792  5.2556 -0.0543 -0.0904
18456THY    CA448713   2.200   1.110   1.833 -0.2951  0.6964 -0.2192
18456THY    HA448714   2.109   1.163   1.860 -0.6210 -1.2856  0.3162
18456THY    CA548715   2.210   0.968   1.838 -0.2425 -0.2318 -0.0780
18456THY    CM148716   2.084   0.899   1.864  0.2895 -0.8160  0.2757
18456THY    HM148717   2.007   0.965   1.905 -0.8396 -0.6556 -1.0857
18456THY    HM248718   2.094   0.822   1.941 -0.2564 -0.4527  0.5600
18456THY    HM348719   2.042   0.861   1.770 -0.6883 -1.2887  2.3702
18456THY    CA648720   2.328   0.903   1.799  0.0772 -0.4208  0.3306
18456THY    HA648721   2.329   0.795   1.793  0.7334 -1.6274  0.3818
18457THY      O48722   1.216   8.468   4.728 -0.0928 -0.3374 -0.2343
18457THY     HO48723   1.122   8.454   4.705  0.1403  0.0372 -2.8730
18457THY    CA148724   1.235   8.559   4.826  0.3540  0.7089 -0.5022
18457THY    CA248725   1.366   8.600   4.871  0.0729 -0.3136 -0.6474
18457THY    CP148726   1.491   8.554   4.804  0.6461 -0.9489 -0.3081
18457THY    HP148727   1.460   8.538   4.700 -0.9159 -0.7992  1.3725
18457THY    CP248728   1.566   8.439   4.886  0.1778 -0.1477 -0.0747
18457THY    HP248729   1.669   8.423   4.853 -0.2666 -0.8983 -1.5869
18457THY    HP348730   1.523   8.338   4.884  1.5332  1.7454 -0.7567
18457THY    HP448731   1.564   8.460   4.994  0.2872  0.0468 -1.0167
18457THY    CP348732   1.587   8.676   4.798 -0.2909  0.2926  0.2010
18457THY    HP548733   1.554   8.751   4.725  0.1117 -2.0541 -1.7485
18457THY    HP648734   1.681   8.633   4.761 -0.0890 -0.0369  0.9205
18457THY    HP748735   1.612   8.724   4.893 -0.1748  0.1976  0.3302
18457THY    CA348736   1.378   8.677   4.987  0.3782 -0.1888  0.1503
18457THY    HA348737   1.468   8.699   5.044 -0.9409  2.1296 -0.0633
18457THY    CA448738   1.260   8.731   5.044  0.0665 -0.1581  0.1260
18457THY    HA448739   1.263   8.794   5.132  1.9922  0.0401 -0.1951
18457THY    CA548740   1.132   8.687   5.005 -0.1686 -0.5298  0.0738
18457THY    CM148741   1.010   8.728   5.078  0.2144  0.2274 -0.2201
18457THY    HM148742   0.917   8.714   5.022  0.4786 -0.4457  0.5939
18457THY    HM248743   1.013   8.834   5.104 -1.3395 -1.5273  0.2995
18457THY    HM348744   0.988   8.671   5.169 -2.9336 -0.4580 -0.2730
18457THY    CA648745   1.124   8.605   4.891 -0.1961  0.0238 -0.3132
18457THY    HA648746   1.027   8.567   4.862  0.3966 -0.2808 -1.6674
18458THY      O48747   7.031   5.133   2.059  0.6362 -0.0273  0.4657
18458THY     HO48748   7.111   5.085   2.085  0.8639 -0.5872  0.5346
18458THY    CA148749   7.007   5.106   1.929  0.3367 -0.2014  0.1504
18458THY    CA248750   6.936   5.194   1.842  0.0498  0.0904  0.2430
18458THY    CP148751   6.888   5.337   1.893 -0.3755  0.1705  0.3155
18458THY    HP148752   6.865   5.331   2.000  0.2374  0.3638  1.2030
18458THY    CP248753   6.759   5.392   1.828 -0.1761  0.3099 -0.1479
18458THY    HP248754   6.670   5.335   1.856 -1.0481  0.5964  1.2987
18458THY    HP348755   6.771   5.409   1.720 -0.6694  0.5056  1.6967
18458THY    HP448756   6.734   5.490   1.870  1.9696  1.4033  0.0058
18458THY    CP348757   7.006   5.444   1.876 -0.4857  0.1818 -0.2377
18458THY    HP548758   7.099   5.399   1.912  1.0497 -0.4285  2.2316
18458THY    HP648759   6.984   5.536   1.931  1.7470  0.5006  0.1625
18458THY    HP748760   7.009   5.472   1.770 -0.3948  0.5717  1.3092
18458THY    CA348761   6.904   5.150   1.716  0.0388 -0.8417 -0.3150
18458THY    HA348762   6.857   5.221   1.650 -1.6154  1.1760  0.5610
18458THY    CA448763   6.937   5.016   1.669  0.1085 -0.8792  0.1706
18458THY    HA448764   6.914   4.979   1.569 -1.5092  0.0029 -1.3425
18458THY    CA548765   7.004   4.934   1.752  0.6317 -0.5393 -1.0699
18458THY    CM148766   7.045   4.792   1.705 -0.7065  0.3060 -0.2590
18458THY    HM148767   6.968   4.771   1.629 -0.0293 -1.2539  2.3970
18458THY    HM248768   7.027   4.717   1.782 -0.8003  0.2392 -0.3051
18458THY    HM348769   7.146   4.781   1.664 -1.5303 -1.9127 -0.2240
18458THY    CA648770   7.042   4.978   1.880 -0.1395  0.0370 -0.0690
18458THY    HA648771   7.101   4.910   1.941 -0.0171  0.0973  0.0923
18459THY      O48772   2.678   7.327   4.569  0.6489  0.6314 -0.2907
18459THY     HO48773   2.699   7.422   4.581  0.3939 -3.0181  0.3755
18459THY    CA148774   2.735   7.293   4.450 -0.6298 -0.0292 -0.4365
18459THY    CA248775   2.737   7.165   4.393  0.3164 -0.2384 -0.8623
18459THY    CP148776   2.662   7.057   4.458  0.4448  0.9287 -0.2996
18459THY    HP148777   2.563   7.091   4.489  0.6915  0.6468  0.6928
18459THY    CP248778   2.742   7.010   4.579 -0.5302 -0.2997 -0.0058
18459THY    HP248779   2.729   7.088   4.655 -0.4733  2.2671 -2.3523
18459THY    HP348780   2.848   6.986   4.566 -0.4227  1.6129 -0.7150
18459THY    HP448781   2.686   6.925   4.620  1.1962 -1.4651 -1.7693
18459THY    CP348782   2.630   6.934   4.370 -0.6794 -0.1151  0.2054
18459THY    HP548783   2.722   6.884   4.337 -0.8039 -0.3453  0.1291
18459THY    HP648784   2.565   6.971   4.291 -0.6829  0.0594  0.5789
18459THY    HP748785   2.581   6.864   4.438  3.5253  1.2567 -1.7504
18459THY    CA348786   2.821   7.144   4.285 -0.1657  0.7492  0.3787
18459THY    HA348787   2.837   7.050   4.233  3.4628 -2.7702  2.6461
18459THY    CA448788   2.894   7.255   4.224  0.2343  0.2773  0.7727
18459THY    HA448789   2.951   7.253   4.131 -1.9979 -1.1848  1.7519
18459THY    CA548790   2.891   7.378   4.286  0.6518  0.0852 -0.1689
18459THY    CM148791   2.960   7.497   4.228  0.3792 -0.0426 -0.0941
18459THY    HM148792   2.994   7.568   4.305  0.3976 -1.0356  0.9931
18459THY    HM248793   2.884   7.556   4.176  0.8961 -2.1976 -1.2276
18459THY    HM348794   3.044   7.476   4.160 -0.6361 -1.7130  1.0297
18459THY    CA648795   2.805   7.402   4.392  0.2207  0.1299  0.8345
18459THY    HA648796   2.797   7.503   4.431 -1.7674 -0.2764  0.8640
18460THY      O48797   8.300   5.817   5.118  0.0428  0.3362 -0.7878
18460THY     HO48798   8.342   5.848   5.036 -0.1683 -0.3542 -2.2466
18460THY    CA148799   8.290   5.683   5.090 -0.0990  0.4986 -0.1123
18460THY    CA248800   8.189   5.599   5.145  0.9734 -0.5052 -0.3004
18460THY    CP148801   8.095   5.666   5.251 -0.0619  0.2348 -0.5716
18460THY    HP148802   8.129   5.762   5.290  0.5589 -1.8715  0.1073
18460THY    CP248803   8.079   5.581   5.378 -0.8264  0.3132 -0.0209
18460THY    HP248804   8.005   5.620   5.449 -0.7326 -0.1901  1.1160
18460THY    HP348805   8.166   5.560   5.440 -0.2064 -1.1956 -2.2600
18460THY    HP448806   8.039   5.482   5.352  2.8251  1.8208 -2.0683
18460THY    CP348807   7.953   5.678   5.197  0.2939 -0.0583 -1.0676
18460THY    HP548808   7.885   5.602   5.237  1.3288 -0.4514 -2.2305
18460THY    HP648809   7.959   5.676   5.088 -0.6822 -0.2001  1.0288
18460THY    HP748810   7.910   5.774   5.228  0.2088  1.3440 -1.5396
18460THY    CA348811   8.174   5.470   5.099 -0.4151 -0.0868 -0.1916
18460THY    HA348812   8.096   5.409   5.144 -1.2385 -1.1192  0.0628
18460THY    CA448813   8.271   5.418   5.004 -0.2382  0.0314  0.1924
18460THY    HA448814   8.260   5.316   4.969  0.9383  0.3587 -0.0508
18460THY    CA548815   8.373   5.507   4.959 -0.6475  0.6662  0.5556
18460THY    CM148816   8.477   5.459   4.859  0.3598 -0.0732 -0.7627
18460THY    HM148817   8.575   5.436   4.903  1.0825 -1.4708 -0.5028
18460THY    HM248818   8.495   5.540   4.787 -1.7960  1.4668  1.2058
18460THY    HM348819   8.433   5.379   4.798  2.9270 -0.6409 -1.8615
18460THY    CA648820   8.376   5.637   4.997  0.9257 -0.5221 -0.2942
18460THY    HA648821   8.453   5.696   4.950  2.3931  1.9481 -0.1135
18461THY      O48822   6.189   8.612   4.210 -0.0087  0.2629 -0.0200
18461THY     HO48823   6.236   8.627   4.294  0.3123  0.0048  0.4531
18461THY    CA148824   6.086   8.526   4.223 -0.9336  0.0447  0.3881
18461THY    CA248825   6.029   8.467   4.114  0.0886 -0.1373  0.1874
18461THY    CP148826   6.091   8.491   3.972  0.0332  0.3601 -0.0759
18461THY    HP148827   6.183   8.550   3.983 -0.2974  1.2182  0.2909
18461THY    CP248828   5.998   8.557   3.870 -0.6162  0.2872 -0.5306
18461THY    HP248829   5.955   8.649   3.911  0.8182  0.8715 -0.0833
18461THY    HP348830   5.920   8.497   3.822 -0.9968  0.2897 -0.0447
18461THY    HP448831   6.064   8.581   3.786  0.7914  1.6774  0.7339
18461THY    CP348832   6.137   8.357   3.915 -0.3557  0.7924  0.1616
18461THY    HP548833   6.212   8.306   3.977  0.6850  0.3908  1.1730
18461THY    HP648834   6.176   8.391   3.818 -0.0988  0.7593 -0.2160
18461THY    HP748835   6.049   8.295   3.895  0.9842 -0.5265 -1.4359
18461THY    CA348836   5.914   8.385   4.132 -0.8065  0.0413 -0.0040
18461THY    HA348837   5.856   8.340   4.052 -0.0490 -0.0201 -0.9003
18461THY    CA448838   5.873   8.363   4.267 -0.2558  0.2978 -0.7614
18461THY    HA448839   5.790   8.300   4.299 -0.2808  3.1766  0.5662
18461THY    CA548840   5.938   8.428   4.376 -0.7626  0.1514 -0.1201
18461THY    CM148841   5.892   8.403   4.511 -0.8448 -0.5406  0.8160
18461THY    HM148842   5.975   8.383   4.579 -0.4488 -1.7053 -2.1710
18461THY    HM248843   5.836   8.308   4.513 -0.0489  1.9802  0.3253
18461THY    HM348844   5.835   8.483   4.559 -0.8096  2.1206 -0.6484
18461THY    CA648845   6.045   8.508   4.350  0.2283 -0.2229 -0.0407
18461THY    HA648846   6.099   8.550   4.435  1.3152 -0.5358 -0.7546
18462THY      O48847   2.788   4.660   7.190 -0.0097  0.1306 -0.7717
18462THY     HO48848   2.786   4.752   7.158  2.6456 -0.8165 -0.9514
18462THY    CA148849   2.725   4.585   7.099  1.3806 -0.0205 -0.1645
18462THY    CA248850   2.762   4.448   7.078  0.5252 -0.1513 -0.2513
18462THY    CP148851   2.875   4.396   7.165 -0.0647 -0.0694  1.0129
18462THY    HP148852   2.873   4.430   7.269 -2.4614  0.5467 -0.7114
18462THY    CP248853   3.003   4.439   7.093  0.7313 -0.5105  0.3782
18462THY    HP248854   3.004   4.547   7.074 -0.3956 -0.2550  0.4469
18462THY    HP348855   2.999   4.386   6.997 -0.6406  0.2486 -0.9972
18462THY    HP448856   3.089   4.408   7.154 -0.4995  0.0445 -2.2747
18462THY    CP348857   2.872   4.242   7.175 -0.3587 -0.5876  0.1239
18462THY    HP548858   2.906   4.203   7.271 -1.1421 -0.7336 -0.9804
18462THY    HP648859   2.947   4.209   7.102  0.1740 -0.0396  0.1088
18462THY    HP748860   2.772   4.201   7.158 -1.2038 -0.0199  1.8553
18462THY    CA348861   2.709   4.381   6.969  0.1497 -0.4800  0.5624
18462THY    HA348862   2.750   4.283   6.945 -0.1823 -0.3260  0.3816
18462THY    CA448863   2.607   4.444   6.891  0.2184 -0.5880 -0.5757
18462THY    HA448864   2.567   4.401   6.800 -0.3971 -1.3455  1.4821
18462THY    CA548865   2.569   4.574   6.918  0.7995  0.2805 -0.4949
18462THY    CM148866   2.471   4.631   6.829 -0.2073 -0.3543 -0.8325
18462THY    HM148867   2.402   4.554   6.792 -1.5069  2.0351 -0.9069
18462THY    HM248868   2.517   4.686   6.746 -1.0151  0.7129  1.5489
18462THY    HM348869   2.410   4.695   6.893 -1.0666 -0.5664 -1.4219
18462THY    CA648870   2.626   4.645   7.022 -0.0611 -0.6800  0.3200
18462THY    HA648871   2.603   4.751   7.030  1.8601 -1.0273  0.8211
18463THY      O48872   7.536   7.842   2.034 -0.5415 -0.4111  0.7076
18463THY     HO48873   7.590   7.891   2.099  2.8071 -0.6058 -2.3169
18463THY    CA148874   7.622   7.752   1.981  0.1414  0.2213 -0.2506
18463THY    CA248875   7.574   7.626   1.932 -1.3469 -0.4621  0.9634
18463THY    CP148876   7.424   7.600   1.938 -0.0188 -0.1330 -0.1721
18463THY    HP148877   7.360   7.686   1.960 -2.0898 -2.3974 -1.0128
18463THY    CP248878   7.381   7.488   2.042  0.3845 -0.3893  0.0500
18463THY    HP248879   7.430   7.395   2.012  0.0767 -3.1699  0.7062
18463THY    HP348880   7.275   7.459   2.042  0.7503  0.1736 -1.3702
18463THY    HP448881   7.411   7.514   2.144 -0.3688 -0.0537 -0.3554
18463THY    CP348882   7.367   7.563   1.799  0.8608 -0.0103 -0.3476
18463THY    HP548883   7.392   7.630   1.716 -1.6922 -1.6240 -1.2412
18463THY    HP648884   7.258   7.562   1.804  0.8584  0.0483  0.0756
18463THY    HP748885   7.409   7.469   1.760 -1.5464 -1.1630 -1.0312
18463THY    CA348886   7.669   7.538   1.877  0.5622  1.1164 -0.7944
18463THY    HA348887   7.648   7.437   1.844 -2.1013  0.5944 -0.1281
18463THY    CA448888   7.807   7.564   1.896  0.2898  0.5145 -0.6176
18463THY    HA448889   7.877   7.488   1.864  1.7187 -0.6961  1.1113
18463THY    CA548890   7.850   7.687   1.943 -0.5701 -0.3702 -0.2530
18463THY    CM148891   7.992   7.729   1.953  0.1013  0.4439  0.0340
18463THY    HM148892   8.003   7.777   2.051 -0.4055  0.0316  1.0064
18463THY    HM248893   8.012   7.816   1.890  0.5839 -0.2322 -0.5466
18463THY    HM348894   8.064   7.649   1.933 -0.2341 -0.8799  0.0331
18463THY    CA648895   7.755   7.775   1.988 -0.1289  0.2596 -0.1803
18463THY    HA648896   7.788   7.861   2.045  0.5054 -0.6783  0.2180
18464THY      O48897   4.677   3.047   1.571 -0.1897 -0.4076  0.3524
18464THY     HO48898   4.685   3.115   1.503  1.3725  0.2022  0.8239
18464THY    CA148899   4.798   3.019   1.625 -0.0472 -0.1261 -0.0293
18464THY    CA248900   4.833   2.889   1.666  0.0828  1.1091 -0.1102
18464THY    CP148901   4.728   2.780   1.669  0.4696  0.9197  0.5243
18464THY    HP148902   4.648   2.799   1.597 -0.4317  2.3046  2.2141
18464THY    CP248903   4.646   2.777   1.803  0.2477 -0.6712 -0.1624
18464THY    HP248904   4.589   2.684   1.815 -0.4870  1.6015  0.5217
18464THY    HP348905   4.569   2.853   1.821  0.9311  0.7931  0.1941
18464THY    HP448906   4.715   2.768   1.887 -1.1867  0.4177 -1.5462
18464THY    CP348907   4.778   2.635   1.638  0.2489 -0.2154 -0.2160
18464THY    HP548908   4.858   2.627   1.564  1.8466  1.5213 -0.9723
18464THY    HP648909   4.689   2.575   1.614 -0.9950  1.0489  1.0206
18464THY    HP748910   4.818   2.598   1.733 -0.2114 -0.1596 -0.5768
18464THY    CA348911   4.963   2.872   1.718 -0.2211  0.1746 -0.6213
18464THY    HA348912   4.994   2.771   1.744 -2.3866  0.2226 -1.3129
18464THY    CA448913   5.056   2.977   1.714  0.5369  0.0694 -0.1590
18464THY    HA448914   5.161   2.958   1.736  0.1578  1.5038 -0.7885
18464THY    CA548915   5.015   3.103   1.674 -0.4439 -0.2364  0.0673
18464THY    CM148916   5.123   3.207   1.669 -0.0147  0.3151  0.9351
18464THY    HM148917   5.192   3.183   1.750  0.2345 -0.3008 -0.5429
18464THY    HM248918   5.087   3.310   1.683 -0.0388  0.1653  0.9475
18464THY    HM348919   5.180   3.195   1.576 -0.6646  0.2314 -2.4604
18464THY    CA648920   4.886   3.130   1.633 -0.0801 -1.1095  0.3895
18464THY    HA648921   4.862   3.228   1.593 -1.0880 -0.3176  0.4776
18465THY      O48922   8.868   8.859   3.053  0.0872  0.3713  0.0815
18465THY     HO48923   8.791   8.800   3.040  1.6477  0.9220 -2.2005
18465THY    CA148924   8.854   8.949   2.955  0.0913 -0.3120 -0.3066
18465THY    CA248925   8.968   8.998   2.892  0.3499 -0.9959  0.6107
18465THY    CP148926   9.103   8.963   2.944 -0.0117  0.0007  0.0502
18465THY    HP148927   9.173   9.006   2.871  0.3109 -0.4052 -1.1071
18465THY    CP248928   9.140   8.807   2.937 -0.1916  0.0366 -0.4145
18465THY    HP248929   9.246   8.785   2.925 -0.4710  0.3237 -2.0792
18465THY    HP348930   9.083   8.768   2.852 -1.2436  0.3586  0.3615
18465THY    HP448931   9.107   8.757   3.029  0.2915 -0.0998 -0.9937
18465THY    CP348932   9.140   9.025   3.079  0.6512 -0.1281  0.4054
18465THY    HP548933   9.060   8.998   3.148  0.2710 -0.3928  0.8518
18465THY    HP648934   9.146   9.135   3.072 -3.1123 -1.0272  0.6643
18465THY    HP748935   9.239   8.995   3.116  1.4581 -1.6661  1.0978
18465THY    CA348936   8.959   9.083   2.779  0.2126 -1.1374  0.7042
18465THY    HA348937   9.052   9.116   2.734  0.8920  0.3131  0.8431
18465THY    CA448938   8.826   9.114   2.742  0.3614  0.2262 -0.0753
18465THY    HA448939   8.819   9.175   2.652  2.8500  0.1840  0.2438
18465THY    CA548940   8.714   9.070   2.800  0.2859  0.3271 -0.3452
18465THY    CM148941   8.584   9.102   2.733  0.7356 -0.1041  0.2688
18465THY    HM148942   8.580   9.049   2.637  0.0190 -0.2123  0.4976
18465THY    HM248943   8.561   9.209   2.724  0.0715  2.0980  0.3568
18465THY    HM348944   8.505   9.077   2.805  0.7684  0.2183  1.0536
18465THY    CA648945   8.731   8.981   2.909 -0.2097 -0.1891  0.1833
18465THY    HA648946   8.642   8.943   2.958 -0.8505 -1.6889 -0.3291
18466THY      O48947   5.706   1.829   1.848 -0.2159  0.1043 -0.1980
18466THY     HO48948   5.640   1.790   1.789 -0.4085 -0.0268  0.3171
18466THY    CA148949   5.656   1.800   1.968  0.2192 -0.3518  0.0806
18466THY    CA248950   5.702   1.857   2.088 -0.5416  0.6089  0.2709
18466THY    CP148951   5.832   1.944   2.082 -0.7476  0.3273  0.5182
18466THY    HP148952   5.836   2.006   1.992 -1.4312  0.7869  1.2655
18466THY    CP248953   5.952   1.855   2.092  0.5635 -0.7253  0.3814
18466THY    HP248954   6.043   1.916   2.087 -0.1399  1.2992  1.6948
18466THY    HP348955   5.949   1.779   2.013 -1.0309 -0.5765  0.2631
18466THY    HP448956   5.947   1.800   2.187 -0.0163 -0.6277  0.5926
18466THY    CP348957   5.837   2.054   2.185 -0.3585  0.1578 -0.5573
18466THY    HP548958   5.748   2.118   2.189  0.5051 -1.2623  0.8054
18466THY    HP648959   5.919   2.125   2.172 -2.3288  3.6505  2.7250
18466THY    HP748960   5.861   2.010   2.283 -1.5446 -0.1205 -1.8801
18466THY    CA348961   5.648   1.812   2.210  0.3088 -0.3782 -0.3706
18466THY    HA348962   5.690   1.855   2.301  0.3968 -1.6914  2.6071
18466THY    CA448963   5.538   1.722   2.203  0.2246  0.0492  0.2434
18466THY    HA448964   5.489   1.683   2.292  1.7863  0.7032 -0.2750
18466THY    CA548965   5.483   1.682   2.082 -0.4149  0.2855 -0.4659
18466THY    CM148966   5.395   1.563   2.084  0.3251  0.2654 -0.2881
18466THY    HM148967   5.338   1.562   1.990  2.4467 -1.1306  0.8728
18466THY    HM248968   5.318   1.575   2.161  2.2593  2.0992  1.1363
18466THY    HM348969   5.450   1.469   2.097 -0.0434  0.4344 -0.4796
18466THY    CA648970   5.548   1.714   1.965 -0.3535  0.4054  0.7097
18466THY    HA648971   5.505   1.680   1.872 -0.0796 -0.3963  2.4193
18467THY      O48972   8.209   5.170   7.852  0.0189 -0.2979  0.0930
18467THY     HO48973   8.210   5.257   7.810 -0.2687 -0.5123 -0.0076
18467THY    CA148974   8.095   5.099   7.816 -0.5154  0.1094  0.2069
18467THY    CA248975   8.101   4.969   7.760 -0.5911  0.0825 -0.7968
18467THY    CP148976   8.238   4.907   7.745  0.0580  0.4779  0.3664
18467THY    HP148977   8.319   4.980   7.754 -0.0427 -0.0413  0.5491
18467THY    CP248978   8.261   4.850   7.600  0.1482  0.4568 -0.3101
18467THY    HP248979   8.202   4.759   7.585  0.9387  0.7705 -0.8952
18467THY    HP348980   8.369   4.836   7.582  0.4202  0.2945  1.7010
18467THY    HP448981   8.229   4.933   7.536  0.5446  0.8656  0.1685
18467THY    CP348982   8.277   4.798   7.841  0.4197  0.4480 -0.4477
18467THY    HP548983   8.276   4.843   7.941  0.6207  0.5109 -0.5780
18467THY    HP648984   8.382   4.771   7.824  0.5790  1.4529 -0.4970
18467THY    HP748985   8.214   4.709   7.838 -0.1630 -1.1649 -0.0354
18467THY    CA348986   7.983   4.901   7.733  0.2061  0.4400 -0.3140
18467THY    HA348987   7.982   4.803   7.686 -0.0730 -1.4526  0.5456
18467THY    CA448988   7.862   4.971   7.750  0.2330 -0.3480  0.3892
18467THY    HA448989   7.768   4.923   7.726  0.2725 -1.7332  0.9540
18467THY    CA548990   7.858   5.099   7.801  0.4557 -0.4205  0.4729
18467THY    CM148991   7.729   5.168   7.831  0.2949  0.0836  0.3820
18467THY    HM148992   7.683   5.197   7.736  1.1483 -0.7488 -0.8912
18467THY    HM248993   7.743   5.258   7.893 -2.2165  0.7800  0.3469
18467THY    HM348994   7.660   5.106   7.888 -1.7226  0.0420  2.4545
18467THY    CA648995   7.981   5.165   7.838  1.1471  0.0363  0.3125
18467THY    HA648996   7.975   5.260   7.891  0.3268 -0.0661  0.3270
18468THY      O48997   8.174   5.325   1.679  0.5839  0.1556 -0.2614
18468THY     HO48998   8.213   5.251   1.630 -1.8046 -0.7827 -0.9911
18468THY    CA148999   8.063   5.282   1.750  0.4069  0.5649 -0.6815
18468THY    CA249000   7.973   5.372   1.818  0.2772  0.2076  1.1689
18468THY    CP149001   7.991   5.521   1.816 -0.5257  0.0397 -1.0517
18468THY    HP149002   8.082   5.549   1.761  0.0933  0.9090 -1.3258
18468THY    CP249003   8.035   5.574   1.954 -0.2819 -0.3735 -0.0135
18468THY    HP249004   8.053   5.682   1.951  0.7440  1.0626 -0.1197
18468THY    HP349005   8.124   5.526   1.995 -1.9349  1.2440 -1.8748
18468THY    HP449006   7.957   5.546   2.026  1.1167  1.2803  0.1806
18468THY    CP349007   7.874   5.600   1.757 -0.6406 -0.2276  0.5025
18468THY    HP549008   7.902   5.691   1.703 -1.1321  1.1942  1.5209
18468THY    HP649009   7.796   5.616   1.832 -0.3822  0.2667 -0.4662
18468THY    HP749010   7.832   5.542   1.673  0.7872 -2.3693  2.4005
18468THY    CA349011   7.875   5.319   1.910 -0.4406  0.1274 -0.5116
18468THY    HA349012   7.808   5.386   1.963 -0.5451 -0.3127 -0.2606
18468THY    CA449013   7.857   5.178   1.909  0.1092 -0.1528 -0.1189
18468THY    HA449014   7.774   5.140   1.967  1.5039  1.7556 -0.4249
18468THY    CA549015   7.940   5.095   1.835 -0.1008 -0.2721  0.2491
18468THY    CM149016   7.932   4.942   1.844 -0.1701  0.3156 -0.1550
18468THY    HM149017   8.008   4.892   1.784 -1.0946  1.1804 -2.7788
18468THY    HM249018   7.834   4.903   1.814 -0.6675 -1.3072  2.1200
18468THY    HM349019   7.958   4.913   1.947  0.8776 -0.0703 -0.6324
18468THY    CA649020   8.034   5.148   1.754 -0.1243  0.1559 -0.3099
18468THY    HA649021   8.091   5.085   1.686  1.0550 -0.2461  1.1454
18469THY      O49022   2.440   6.020   5.561 -0.4221 -0.5236 -0.3259
18469THY     HO49023   2.530   5.989   5.544 -0.5250  0.2539 -1.0808
18469THY    CA149024   2.365   5.918   5.513 -1.2095  0.5680  0.2031
18469THY    CA249025   2.235   5.933   5.469  0.1030  0.3869 -0.1764
18469THY    CP149026   2.160   6.065   5.479  0.4057  0.5218  0.5289
18469THY    HP149027   2.227   6.148   5.504 -0.2733  0.9623  0.9496
18469THY    CP249028   2.046   6.058   5.585 -0.0132 -0.2930 -0.4842
18469THY    HP249029   1.974   5.979   5.562  2.2405  0.5002 -2.9114
18469THY    HP349030   2.009   6.161   5.594 -1.7683  1.2931 -1.1842
18469THY    HP449031   2.093   6.025   5.678  3.1481 -1.1994  1.0605
18469THY    CP349032   2.102   6.110   5.348 -0.0244 -0.1824  0.5904
18469THY    HP549033   2.181   6.127   5.273 -0.2687 -0.4237  0.6616
18469THY    HP649034   2.042   6.202   5.345  1.4268 -2.4619  1.5576
18469THY    HP749035   2.041   6.028   5.310 -1.9691 -2.4953  2.9351
18469THY    CA349036   2.170   5.820   5.419  0.0938 -0.7205 -0.5971
18469THY    HA349037   2.069   5.835   5.384 -0.3881  1.0119  0.5012
18469THY    CA449038   2.236   5.698   5.404 -0.5709 -0.7909 -0.2482
18469THY    HA449039   2.191   5.606   5.368  0.9515 -0.4218 -1.1700
18469THY    CA549040   2.363   5.681   5.455 -0.4076  0.2393  0.5041
18469THY    CM149041   2.428   5.544   5.438  0.7575 -0.2111  1.0337
18469THY    HM149042   2.458   5.517   5.336  0.4259  0.1473 -0.8621
18469THY    HM249043   2.353   5.471   5.473 -0.6468  0.1264  2.5796
18469THY    HM349044   2.516   5.525   5.499  0.8088 -0.8936 -1.2877
18469THY    CA649045   2.428   5.787   5.514 -0.4200 -0.6304  0.4050
18469THY    HA649046   2.531   5.782   5.549 -0.7924  1.0187  2.6145
18470THY      O49047   7.252   6.386   3.843  0.1036  0.0452  0.2679
18470THY     HO49048   7.344   6.408   3.866  1.5725 -2.6359 -2.3172
18470THY    CA149049   7.221   6.432   3.718 -0.8949  0.1197 -0.1894
18470THY    CA249050   7.089   6.432   3.659 -0.5041 -0.2879 -0.7694
18470THY    CP149051   6.973   6.380   3.733 -0.5611 -0.3486  0.2227
18470THY    HP149052   7.007   6.313   3.813 -2.9773  1.1740  0.6843
18470THY    CP249053   6.865   6.302   3.654  0.5552 -0.4225  0.2591
18470THY    HP249054   6.777   6.275   3.713  1.1807  0.1944 -0.5055
18470THY    HP349055   6.908   6.207   3.619 -0.9133  0.4552 -0.7852
18470THY    HP449056   6.830   6.353   3.564 -2.2602 -0.0267 -0.8096
18470THY    CP349057   6.882   6.498   3.794 -0.0747 -0.3275 -0.2174
18470THY    HP549058   6.941   6.556   3.867 -0.7425  1.3305 -1.5453
18470THY    HP649059   6.805   6.453   3.857  0.7163  2.0871  1.6023
18470THY    HP749060   6.846   6.568   3.717  1.9727 -1.1196  0.0510
18470THY    CA349061   7.076   6.491   3.530 -0.0433 -0.3547  1.3842
18470THY    HA349062   6.976   6.495   3.488  0.0713 -0.7801  0.1220
18470THY    CA449063   7.186   6.543   3.462  0.2118 -0.0219 -0.5645
18470THY    HA449064   7.176   6.591   3.365  0.8849  1.7863  3.5949
18470THY    CA549065   7.304   6.541   3.526 -0.0349  0.3241  0.3403
18470THY    CM149066   7.432   6.589   3.453 -1.2768 -0.3845  0.0289
18470THY    HM149067   7.429   6.697   3.468 -1.7960  1.7505 -0.2408
18470THY    HM249068   7.430   6.569   3.345 -0.2268 -1.0194  2.8384
18470THY    HM349069   7.518   6.540   3.501 -1.7042 -0.8058 -1.1779
18470THY    CA649070   7.322   6.490   3.651 -0.2220  0.0151 -0.2244
18470THY    HA649071   7.418   6.495   3.702 -2.2285  4.2435 -0.5534
18471THY      O49072   5.091   2.071   6.104  1.0290  0.4573 -0.2488
18471THY     HO49073   5.171   2.016   6.111  2.7423 -0.1957  1.9984
18471THY    CA149074   5.005   2.017   6.193  0.1013 -0.3578 -0.0919
18471THY    CA249075   4.869   2.055   6.204 -0.2099 -0.0149 -0.3918
18471THY    CP149076   4.810   2.148   6.103 -0.6397 -0.0754 -0.3378
18471THY    HP149077   4.888   2.171   6.029  0.7739  0.8005 -2.1310
18471THY    CP249078   4.782   2.279   6.170 -0.2602 -0.4499 -0.1999
18471THY    HP249079   4.875   2.310   6.219 -0.5954  1.3911 -1.9238
18471THY    HP349080   4.704   2.278   6.247  0.4919  0.3204 -0.7392
18471THY    HP449081   4.750   2.351   6.094  0.3644 -1.0743 -0.5634
18471THY    CP349082   4.690   2.093   6.022  0.7457 -0.1174 -0.3677
18471THY    HP549083   4.598   2.102   6.080  0.8819  0.1768 -0.8650
18471THY    HP649084   4.702   1.986   6.001  3.1228  2.3447 -0.6893
18471THY    HP749085   4.683   2.159   5.934 -2.5740 -0.8671 -1.5455
18471THY    CA349086   4.781   1.975   6.275  0.2428 -0.0374 -0.1737
18471THY    HA349087   4.674   1.995   6.272  0.4952 -1.5796  1.1782
18471THY    CA449088   4.832   1.872   6.352  0.2396  0.0370  0.0247
18471THY    HA449089   4.758   1.817   6.410 -0.4191  1.1456  1.9712
18471THY    CA549090   4.968   1.842   6.345 -0.5757  0.3455  0.4393
18471THY    CM149091   5.030   1.733   6.413 -0.9916 -0.6013 -0.0004
18471THY    HM149092   5.112   1.767   6.477 -0.0132 -0.5480 -2.2351
18471THY    HM249093   5.070   1.667   6.334  0.7872  1.3675 -1.4217
18471THY    HM349094   4.961   1.675   6.475  0.2515  0.0680 -0.8239
18471THY    CA649095   5.057   1.913   6.267 -0.3321  0.6297  0.5382
18471THY    HA649096   5.164   1.895   6.260 -0.3812  0.7558  0.1907
18472THY      O49097   0.474   1.695   4.193 -0.1983 -0.2862 -0.3403
18472THY     HO49098   0.550   1.681   4.252 -0.0349 -0.5895 -0.7379
18472THY    CA149099   0.491   1.813   4.131  0.2660  0.4397  0.2801
18472THY    CA249100   0.404   1.865   4.028 -0.3800 -0.2864 -0.3030
18472THY    CP149101   0.274   1.791   4.001 -0.1454  0.0571 -0.5798
18472THY    HP149102   0.261   1.718   4.081  1.0928 -0.9107 -1.9157
18472THY    CP249103   0.289   1.715   3.872  0.0862 -0.8857 -0.3269
18472THY    HP249104   0.384   1.660   3.880  1.0955  0.5247  1.4998
18472THY    HP349105   0.295   1.790   3.792 -0.5493  0.3989  1.1605
18472THY    HP449106   0.205   1.648   3.851 -1.3117 -0.8591  1.3508
18472THY    CP349107   0.151   1.889   4.002 -0.6504 -0.1108 -0.2105
18472THY    HP549108   0.056   1.835   4.009 -1.5144  3.0690  1.4935
18472THY    HP649109   0.144   1.940   3.905  0.4180 -0.0221  0.1360
18472THY    HP749110   0.154   1.966   4.080 -1.0254 -0.7644  0.4760
18472THY    CA349111   0.446   1.980   3.961 -0.8803 -0.4403  0.4048
18472THY    HA349112   0.396   2.021   3.873  0.1331 -0.5808  1.3607
18472THY    CA449113   0.564   2.051   4.002  0.0240  0.5004 -0.0578
18472THY    HA449114   0.585   2.145   3.952 -1.7460 -1.2720 -0.5314
18472THY    CA549115   0.639   2.006   4.113  0.0212 -0.9937  0.6797
18472THY    CM149116   0.748   2.095   4.157  0.3364 -0.1004 -0.2682
18472THY    HM149117   0.795   2.154   4.078 -0.8428  0.6330  1.7682
18472THY    HM249118   0.826   2.038   4.209  1.2864  0.0208  1.1066
18472THY    HM349119   0.714   2.172   4.227  2.3228 -0.3868  0.9053
18472THY    CA649120   0.602   1.882   4.178 -0.5300  0.0144 -0.0237
18472THY    HA649121   0.650   1.854   4.271 -1.6180  0.6505  0.1649
18473THY      O49122   4.067   1.668   5.867  0.0073 -0.5351 -1.0337
18473THY     HO49123   4.008   1.595   5.842  2.2037 -0.2273 -3.0724
18473THY    CA149124   4.064   1.659   6.006 -0.0437 -0.7911 -0.3195
18473THY    CA249125   4.178   1.694   6.081  0.7860  0.6891 -0.0353
18473THY    CP149126   4.313   1.720   6.016 -0.0408 -0.8030 -0.6063
18473THY    HP149127   4.291   1.741   5.911  1.5796 -0.5165  3.5941
18473THY    CP249128   4.393   1.589   6.019 -0.1987  0.6364 -0.0895
18473THY    HP249129   4.407   1.555   6.123 -0.7707  0.9327  0.5473
18473THY    HP349130   4.486   1.606   5.966  0.1697  1.8305  1.9718
18473THY    HP449131   4.340   1.510   5.964 -0.8592 -3.0966  2.7103
18473THY    CP349132   4.385   1.855   6.063  1.1487  0.5555  0.4337
18473THY    HP549133   4.312   1.935   6.051  1.1227  1.3599  0.5332
18473THY    HP649134   4.464   1.879   5.991  2.6598  1.6913 -0.8743
18473THY    HP749135   4.422   1.841   6.165 -0.4057  1.0356 -0.4311
18473THY    CA349136   4.162   1.688   6.216  0.2550 -0.5495  0.1103
18473THY    HA349137   4.249   1.707   6.279 -0.1572  0.7834 -2.0559
18473THY    CA449138   4.040   1.651   6.271  0.1021 -0.1591  0.2282
18473THY    HA449139   4.036   1.631   6.378  1.1187 -0.5225 -2.2303
18473THY    CA549140   3.929   1.631   6.193 -0.0720  0.9525  0.9608
18473THY    CM149141   3.795   1.597   6.252  0.4424 -0.0993 -0.1199
18473THY    HM149142   3.781   1.657   6.343 -1.2015  0.7210 -1.6534
18473THY    HM249143   3.795   1.492   6.283 -2.9083  3.7032  0.7612
18473THY    HM349144   3.718   1.627   6.181 -0.3273  1.2859  1.3501
18473THY    CA649145   3.935   1.647   6.055 -0.3646 -0.4727 -0.0979
18473THY    HA649146   3.849   1.641   5.989  0.6637 -2.2304  2.5532
18474THY      O49147   6.803   6.370   6.502 -0.1106  0.1009 -0.7697
18474THY     HO49148   6.884   6.328   6.467 -0.2182 -2.1239  0.7202
18474THY    CA149149   6.704   6.274   6.522  0.0741  0.2128  0.2260
18474THY    CA249150   6.571   6.309   6.540 -0.3116  0.1593 -0.2526
18474THY    CP149151   6.543   6.461   6.530  0.6378 -0.0615  0.1395
18474THY    HP149152   6.611   6.508   6.458 -0.7709 -2.3246 -1.1219
18474THY    CP249153   6.554   6.523   6.665 -0.7268 -0.0064 -0.4387
18474THY    HP249154   6.662   6.523   6.680 -0.4344 -1.8042  0.8664
18474THY    HP349155   6.512   6.467   6.750 -2.1370  0.5542  1.3734
18474THY    HP449156   6.517   6.625   6.655  0.5125 -0.6703 -0.0417
18474THY    CP349157   6.402   6.488   6.470  0.3077 -1.1721  0.4198
18474THY    HP549158   6.388   6.595   6.451  0.7055 -0.4209  0.6168
18474THY    HP649159   6.331   6.473   6.552  0.4272 -1.3878 -1.4660
18474THY    HP749160   6.377   6.416   6.392 -0.6535 -1.7079  1.3076
18474THY    CA349161   6.469   6.212   6.532  0.8795  0.2450 -0.3375
18474THY    HA349162   6.363   6.236   6.534  1.6178  1.1142  3.5094
18474THY    CA449163   6.507   6.079   6.522  0.6548  0.1885  0.4516
18474THY    HA449164   6.425   6.008   6.515  0.5349  2.2513  0.3192
18474THY    CA549165   6.638   6.037   6.505  0.2311  1.0508  0.2382
18474THY    CM149166   6.669   5.896   6.466  0.9753 -0.1176 -0.4646
18474THY    HM149167   6.588   5.824   6.455 -0.2939  2.0607  0.5190
18474THY    HM249168   6.718   5.834   6.542  1.8297 -1.2954 -1.2702
18474THY    HM349169   6.734   5.893   6.378  1.6863  0.3088  1.0244
18474THY    CA649170   6.739   6.139   6.497 -0.5355  0.0556 -0.6535
18474THY    HA649171   6.835   6.112   6.454 -0.2277  0.6349 -0.4809
18475THY      O49172   5.474   1.639   3.198  0.0021  0.3977  1.0537
18475THY     HO49173   5.441   1.571   3.136 -0.0112  0.3055  1.1450
18475THY    CA149174   5.588   1.587   3.240  0.1529  0.2419  0.3780
18475THY    CA249175   5.638   1.628   3.366  0.3117 -0.4459  0.1914
18475THY    CP149176   5.552   1.725   3.453 -0.1629  0.4099  0.2530
18475THY    HP149177   5.501   1.797   3.388  2.7137 -0.8787  1.2844
18475THY    CP249178   5.628   1.827   3.543  0.1172  0.0261 -0.1556
18475THY    HP249179   5.695   1.795   3.623 -0.7248  0.4649 -0.8685
18475THY    HP349180   5.553   1.880   3.603 -0.5526  0.2717 -1.3399
18475THY    HP449181   5.673   1.906   3.482 -0.3630  0.2089  0.2698
18475THY    CP349182   5.459   1.642   3.542 -0.1456  0.1625  0.4129
18475THY    HP549183   5.359   1.636   3.498 -0.0198 -0.1996  0.9190
18475THY    HP649184   5.457   1.693   3.639  3.1703 -0.4336  1.9383
18475THY    HP749185   5.482   1.534   3.546 -2.6705  2.7944 -0.1521
18475THY    CA349186   5.757   1.573   3.413 -0.6601  0.4722  0.2431
18475THY    HA349187   5.791   1.600   3.512 -2.3186  0.9846  0.5775
18475THY    CA449188   5.831   1.495   3.336  0.0301  0.4116  0.1575
18475THY    HA449189   5.930   1.458   3.359 -0.9390 -0.3162 -3.2012
18475THY    CA549190   5.789   1.464   3.204 -0.3638  0.1656  0.3999
18475THY    CM149191   5.879   1.387   3.111  0.0421  0.1246 -0.2713
18475THY    HM149192   5.986   1.391   3.135  0.3643 -1.1047 -1.0856
18475THY    HM249193   5.867   1.430   3.011 -1.6099 -0.2012 -1.4071
18475THY    HM349194   5.851   1.283   3.095  2.5745 -0.0635 -0.9861
18475THY    CA649195   5.669   1.509   3.155  0.1247  0.3908  0.4114
18475THY    HA649196   5.644   1.486   3.052 -0.6009  1.0094 -1.9400
18476THY      O49197   6.783   7.878   5.819 -0.0363  0.7996  0.3877
18476THY     HO49198   6.857   7.921   5.864 -0.2485  0.5920  0.9953
18476THY    CA149199   6.664   7.928   5.882 -0.0691  0.0219  0.3761
18476THY    CA249200   6.538   7.938   5.820 -0.4931 -0.0953  0.1031
18476THY    CP149201   6.524   7.897   5.671  0.8204 -0.6797  0.2282
18476THY    HP149202   6.599   7.821   5.648 -0.0913  0.4949 -1.0916
18476THY    CP249203   6.533   8.027   5.584 -0.2183  0.1342  0.3697
18476THY    HP249204   6.515   8.000   5.479  0.5063  0.1041 -0.0442
18476THY    HP349205   6.637   8.061   5.594 -0.0318 -1.3849  0.3047
18476THY    HP449206   6.459   8.097   5.624 -1.4491 -1.2107 -0.1190
18476THY    CP349207   6.395   7.815   5.639 -0.7532  0.4788 -1.2061
18476THY    HP549208   6.396   7.793   5.532 -0.4872  0.5800 -1.7209
18476THY    HP649209   6.301   7.864   5.665 -1.5838 -0.6739 -2.1208
18476THY    HP749210   6.404   7.723   5.698 -1.4069 -0.2636 -1.7576
18476THY    CA349211   6.426   7.993   5.886  0.2554  0.1100  0.5571
18476THY    HA349212   6.332   8.018   5.838  0.5434  0.2419  2.0192
18476THY    CA449213   6.448   8.047   6.011 -0.3246 -0.0350 -0.8521
18476THY    HA449214   6.370   8.096   6.068  0.3761  0.9373 -0.8445
18476THY    CA549215   6.577   8.031   6.076  0.4100 -0.3261  0.2190
18476THY    CM149216   6.595   8.090   6.215  0.4662 -0.2586 -0.3647
18476THY    HM149217   6.521   8.051   6.286  1.6407 -0.0632 -2.3504
18476THY    HM249218   6.587   8.199   6.212  0.1137 -1.3905 -0.4088
18476THY    HM349219   6.685   8.053   6.266  0.2355  1.8488  1.7436
18476THY    CA649220   6.684   7.972   6.013  0.4607 -0.6322 -0.4842
18476THY    HA649221   6.778   7.969   6.067 -0.7116  1.4258 -2.4416
18477THY      O49222   3.749   7.035   3.479  0.4251 -0.9579  0.3167
18477THY     HO49223   3.693   7.016   3.402 -0.9893  0.1172 -0.0848
18477THY    CA149224   3.757   6.918   3.537 -0.2749 -0.4154 -0.0315
18477THY    CA249225   3.818   6.908   3.668  0.1717  0.0343 -0.2467
18477THY    CP149226   3.883   7.034   3.725  0.3853  0.5599  0.0727
18477THY    HP149227   3.906   7.108   3.647 -2.0949  0.1993  0.5277
18477THY    CP249228   4.012   7.009   3.802 -0.8936  0.4128  0.0106
18477THY    HP249229   4.050   7.109   3.822  2.2015 -1.7065 -0.6082
18477THY    HP349230   4.088   6.959   3.741 -0.7378  0.1138  0.6021
18477THY    HP449231   3.994   6.947   3.891  0.5364  0.2194 -0.7145
18477THY    CP349232   3.778   7.097   3.810  0.5704  0.6132  1.0041
18477THY    HP549233   3.798   7.190   3.864  1.5009  1.9308  0.0827
18477THY    HP649234   3.733   7.024   3.878 -1.8078 -3.7003 -1.9927
18477THY    HP749235   3.690   7.124   3.751  0.9875 -0.8461 -0.6453
18477THY    CA349236   3.832   6.774   3.722 -0.7090  0.0769 -0.4363
18477THY    HA349237   3.882   6.768   3.818 -0.7482  0.3706  2.5553
18477THY    CA449238   3.766   6.665   3.659  0.1568  0.3897 -1.1732
18477THY    HA449239   3.766   6.564   3.699  0.0885  1.9218 -0.5893
18477THY    CA549240   3.705   6.689   3.539 -0.8843 -0.0454 -0.5003
18477THY    CM149241   3.649   6.569   3.475  0.3120  0.4028 -0.5019
18477THY    HM149242   3.550   6.553   3.519 -0.2838 -1.0998 -1.1862
18477THY    HM249243   3.709   6.478   3.490  0.5815 -1.9724 -0.7848
18477THY    HM349244   3.635   6.587   3.367 -0.9786  0.6374  0.0024
18477THY    CA649245   3.700   6.812   3.479 -0.0895  0.2157 -0.2143
18477THY    HA649246   3.656   6.813   3.379 -0.3471  0.2945 -1.6613
18478THY      O49247   6.549   2.928   5.241  0.2216  0.1609 -0.0217
18478THY     HO49248   6.602   2.852   5.213  0.5682 -2.8043  1.1861
18478THY    CA149249   6.470   2.954   5.137  0.4164 -0.3915  0.6458
18478THY    CA249250   6.474   3.079   5.075 -0.0712  0.7478 -0.4155
18478THY    CP149251   6.561   3.186   5.141  0.1067 -0.3613 -0.1039
18478THY    HP149252   6.632   3.143   5.213  0.3906  1.9506  3.7652
18478THY    CP249253   6.471   3.287   5.216  0.3659  0.0707 -0.7421
18478THY    HP249254   6.413   3.246   5.299  0.4037  1.9520  2.5787
18478THY    HP349255   6.401   3.342   5.151 -1.9374  2.0053 -1.2561
18478THY    HP449256   6.539   3.358   5.265 -0.0425 -1.7937  1.0536
18478THY    CP349257   6.640   3.266   5.035 -0.3033  0.1617  0.1678
18478THY    HP549258   6.734   3.292   5.084 -0.3159  1.2519 -1.6519
18478THY    HP649259   6.593   3.358   4.999 -1.1707 -0.3865 -0.4696
18478THY    HP749260   6.661   3.212   4.942 -1.2715  0.0930 -0.1102
18478THY    CA349261   6.395   3.107   4.963 -0.2406 -0.3227  0.4112
18478THY    HA349262   6.385   3.210   4.929 -0.4186  0.2560  0.5906
18478THY    CA449263   6.314   3.004   4.918 -0.3956 -0.2708  0.5820
18478THY    HA449264   6.242   3.012   4.837 -2.1575  0.9291 -1.8806
18478THY    CA549265   6.309   2.879   4.985  0.5930  0.3391 -0.2170
18478THY    CM149266   6.234   2.763   4.912  0.4674 -0.4787 -0.2025
18478THY    HM149267   6.238   2.771   4.803 -0.8013 -0.4574  1.4211
18478THY    HM249268   6.128   2.755   4.941  0.0611 -1.8269  0.0352
18478THY    HM349269   6.283   2.669   4.938 -0.4256  1.2286 -0.2473
18478THY    CA649270   6.379   2.856   5.097  0.0718  0.1665  0.7217
18478THY    HA649271   6.371   2.755   5.138 -0.1348 -0.5440  0.4449
18479THY      O49272   1.121   0.769   3.956  0.6014 -0.5624  0.3185
18479THY     HO49273   1.121   0.702   3.886  2.4779 -0.2882 -0.0041
18479THY    CA149274   1.006   0.749   4.026  0.0209  0.7687  0.0931
18479THY    CA249275   0.986   0.811   4.151 -0.5235  0.2777  0.8497
18479THY    CP149276   1.101   0.908   4.200 -0.2083 -0.0638 -0.3650
18479THY    HP149277   1.161   0.961   4.125 -0.9419  0.7291  1.7008
18479THY    CP249278   1.203   0.827   4.290 -0.4808 -0.0582 -0.8659
18479THY    HP249279   1.298   0.875   4.318 -1.6597  0.3041  1.3546
18479THY    HP349280   1.242   0.743   4.229  0.1343  2.0277 -2.1673
18479THY    HP449281   1.150   0.767   4.365 -1.4899 -1.1778 -1.4161
18479THY    CP349282   1.050   1.016   4.290  0.1071 -0.0882 -0.5523
18479THY    HP549283   1.022   0.982   4.390  0.6354 -0.0732 -0.9656
18479THY    HP649284   0.976   1.079   4.240  0.8617  0.8271  1.1270
18479THY    HP749285   1.129   1.089   4.312  0.2513 -0.6007 -0.5439
18479THY    CA349286   0.865   0.785   4.221  0.0584 -0.4761 -0.1468
18479THY    HA349287   0.852   0.834   4.317  1.6879  0.7256 -1.9077
18479THY    CA449288   0.776   0.688   4.166  0.1134  0.1955  0.1556
18479THY    HA449289   0.689   0.658   4.224  0.6365  0.5621 -0.7032
18479THY    CA549290   0.793   0.642   4.034 -0.3686  0.3676 -0.5445
18479THY    CM149291   0.694   0.543   3.978  0.2295  0.2147 -0.2653
18479THY    HM149292   0.704   0.532   3.869 -0.5922 -0.1444  2.0113
18479THY    HM249293   0.593   0.575   4.007 -0.6432 -1.3315 -1.4880
18479THY    HM349294   0.701   0.444   4.023 -1.0560  0.0001 -0.4802
18479THY    CA649295   0.908   0.672   3.961  0.1612 -0.5542 -0.2170
18479THY    HA649296   0.936   0.617   3.872 -1.1906 -0.4078 -1.2002
18480THY      O49297   1.762   8.600   3.351 -0.2020  0.3421 -0.1564
18480THY     HO49298   1.834   8.570   3.409 -0.1865  1.7949  2.4245
18480THY    CA149299   1.659   8.562   3.431 -0.0831  0.2455  0.1812
18480THY    CA249300   1.548   8.517   3.368  0.1885 -0.1073  0.3712
18480THY    CP149301   1.544   8.495   3.214 -0.5555  0.4434 -0.0377
18480THY    HP149302   1.622   8.554   3.165 -0.3038  2.1102  1.0892
18480THY    CP249303   1.414   8.555   3.147  0.6257 -0.1490  0.7020
18480THY    HP249304   1.318   8.536   3.197  0.2175 -1.3867 -0.6954
18480THY    HP349305   1.406   8.518   3.044 -1.0818  0.0495  0.4487
18480THY    HP449306   1.414   8.665   3.138 -2.0380 -1.8030  0.6441
18480THY    CP349307   1.584   8.357   3.170  0.4167 -0.7631  0.5544
18480THY    HP549308   1.503   8.283   3.178  0.3856 -0.3933  0.6265
18480THY    HP649309   1.660   8.303   3.228 -1.4923 -2.1365 -4.1857
18480THY    HP749310   1.613   8.364   3.065 -1.3495 -1.2526  0.9101
18480THY    CA349311   1.447   8.471   3.451 -0.3101 -0.6274  1.2220
18480THY    HA349312   1.353   8.439   3.408  0.4534 -0.1922 -1.9046
18480THY    CA449313   1.457   8.489   3.593 -0.3873  0.2239 -0.0745
18480THY    HA449314   1.368   8.458   3.647 -1.6632 -2.3450 -1.2056
18480THY    CA549315   1.567   8.551   3.653  0.9843 -0.2360  0.4034
18480THY    CM149316   1.565   8.559   3.806  0.5728 -0.5643 -0.0641
18480THY    HM149317   1.520   8.467   3.845 -1.8660 -2.2333  0.3122
18480THY    HM249318   1.509   8.645   3.843  1.6740 -0.0097  0.4407
18480THY    HM349319   1.668   8.561   3.843  0.0065  1.4274 -2.2864
18480THY    CA649320   1.680   8.579   3.571  0.2465  0.5217  0.1769
18480THY    HA649321   1.765   8.634   3.611 -0.1347 -0.6872  1.7125
18481THY      O49322   1.645   7.145   3.152 -0.5771 -0.7415 -0.2911
18481THY     HO49323   1.712   7.215   3.164 -1.2422 -3.4225  0.9455
18481THY    CA149324   1.526   7.199   3.193  0.6198 -0.5087  0.0723
18481THY    CA249325   1.404   7.125   3.191  0.0785  0.8936  0.6383
18481THY    CP149326   1.400   6.986   3.131 -0.3767 -0.2057  0.0543
18481THY    HP149327   1.498   6.939   3.125 -0.0203  3.0831  0.1645
18481THY    CP249328   1.337   6.996   2.990 -0.2843  0.2628  0.0399
18481THY    HP249329   1.344   6.897   2.943 -1.9063 -0.8269  0.3981
18481THY    HP349330   1.400   7.056   2.923 -1.0527 -0.0247  0.5491
18481THY    HP449331   1.236   7.040   2.993 -0.6672  0.2847 -0.8177
18481THY    CP349332   1.301   6.889   3.210 -0.0087 -0.4938  0.5297
18481THY    HP549333   1.309   6.790   3.165 -1.2443  0.6683 -0.1306
18481THY    HP649334   1.201   6.927   3.186  0.9054 -0.7664  2.9610
18481THY    HP749335   1.317   6.887   3.319  2.6281 -0.8143  0.1822
18481THY    CA349336   1.284   7.186   3.230 -0.3486 -0.2570  0.1725
18481THY    HA349337   1.186   7.140   3.230 -1.4474 -0.2518  2.3427
18481THY    CA449338   1.295   7.314   3.275  0.1191  0.7517  0.2346
18481THY    HA449339   1.198   7.361   3.292 -0.6699 -1.4969 -0.4466
18481THY    CA549340   1.418   7.383   3.289  0.0455  0.6236  0.5422
18481THY    CM149341   1.424   7.528   3.331  0.2769 -0.1451  0.1444
18481THY    HM149342   1.483   7.587   3.260  1.1948  0.1275 -0.4286
18481THY    HM249343   1.466   7.540   3.432 -3.3903  1.7541 -1.5432
18481THY    HM349344   1.328   7.580   3.339 -1.0503 -1.3140 -2.0136
18481THY    CA649345   1.538   7.325   3.248  0.0807 -0.5008 -0.7239
18481THY    HA649346   1.635   7.374   3.253 -0.4563  1.5787  0.2636
18482THY      O49347   2.318   5.052   2.317  0.1540 -0.1766 -0.7534
18482THY     HO49348   2.238   5.044   2.263 -1.6527  2.0664  0.6863
18482THY    CA149349   2.345   5.184   2.317 -0.1630 -0.1027 -0.1556
18482THY    CA249350   2.457   5.229   2.386  0.0783 -0.0455 -1.0091
18482THY    CP149351   2.555   5.123   2.444  0.1527  0.8866  0.2032
18482THY    HP149352   2.528   5.028   2.397 -2.1657 -0.8795  1.6323
18482THY    CP249353   2.545   5.121   2.596 -0.4472 -1.0536 -0.1917
18482THY    HP249354   2.584   5.026   2.633  0.1887  0.6639  0.6848
18482THY    HP349355   2.447   5.126   2.643 -0.6986 -1.3101 -2.1647
18482THY    HP449356   2.601   5.207   2.636 -0.7870 -1.4308  0.2097
18482THY    CP349357   2.703   5.155   2.412  0.4598  0.3807  0.5681
18482THY    HP549358   2.721   5.190   2.310  0.1087 -0.5071 -1.6479
18482THY    HP649359   2.766   5.066   2.419  1.6967  1.0492  1.4730
18482THY    HP749360   2.746   5.224   2.485 -0.8009  0.5407  1.2253
18482THY    CA349361   2.471   5.361   2.406  0.1219  0.1079  0.6754
18482THY    HA349362   2.553   5.405   2.463 -0.3426 -0.0657  1.7947
18482THY    CA449363   2.378   5.449   2.343  0.2055 -0.8728  0.6985
18482THY    HA449364   2.391   5.556   2.360  1.2414 -3.4794  1.0538
18482THY    CA549365   2.268   5.407   2.275  0.3669 -0.6068  0.7970
18482THY    CM149366   2.184   5.499   2.202  0.3073 -0.7848 -0.0388
18482THY    HM149367   2.228   5.599   2.209 -0.1949 -0.6969  0.1796
18482THY    HM249368   2.099   5.518   2.267  1.1338  0.1372  0.5902
18482THY    HM349369   2.156   5.466   2.101  0.6819 -1.1312  0.6832
18482THY    CA649370   2.254   5.268   2.260 -0.5091  0.3541 -0.7244
18482THY    HA649371   2.170   5.223   2.208 -0.1634  0.0523 -1.0285
18483THY      O49372   2.560   9.104   6.106  0.0685 -0.5197 -0.0092
18483THY     HO49373   2.464   9.118   6.098  0.0916  0.8995  1.2140
18483THY    CA149374   2.580   8.986   6.151 -0.1476 -0.4084 -0.2585
18483THY    CA249375   2.692   8.954   6.220  0.1390 -0.0673  0.4575
18483THY    CP149376   2.798   9.067   6.249 -1.1957 -0.4572 -0.2454
18483THY    HP149377   2.804   9.140   6.168 -0.7358  0.8906  1.2714
18483THY    CP249378   2.946   9.022   6.254  0.0599 -0.8690 -0.2124
18483THY    HP249379   2.977   8.960   6.169  2.3987 -1.4757  1.6363
18483THY    HP349380   2.979   8.968   6.344  2.0907 -0.7136  1.1760
18483THY    HP449381   3.009   9.111   6.259 -0.1206 -1.1517 -0.0687
18483THY    CP349382   2.763   9.144   6.376 -0.3134 -0.0334  0.4572
18483THY    HP549383   2.665   9.192   6.365  0.4699 -0.5748  2.0100
18483THY    HP649384   2.842   9.220   6.380  0.1888 -0.3054 -0.0395
18483THY    HP749385   2.773   9.088   6.469  0.5692 -0.6057 -0.3740
18483THY    CA349386   2.717   8.824   6.265 -0.0287 -0.0304 -0.2031
18483THY    HA349387   2.806   8.812   6.326  0.9909 -1.4217 -0.0143
18483THY    CA449388   2.626   8.727   6.240  0.0112  0.2515  0.3072
18483THY    HA449389   2.640   8.631   6.288  1.0927 -3.1122 -1.3680
18483THY    CA549390   2.516   8.753   6.151  0.0797 -0.3120  0.4278
18483THY    CM149391   2.424   8.642   6.117 -0.2900 -0.1404  0.0254
18483THY    HM149392   2.439   8.623   6.010 -0.4462 -0.3138  0.8037
18483THY    HM249393   2.319   8.671   6.127  0.0855  0.9610  1.0863
18483THY    HM349394   2.455   8.561   6.183 -0.3046 -1.6952 -1.3118
18483THY    CA649395   2.490   8.886   6.119 -0.5391  0.7489 -0.2258
18483THY    HA649396   2.401   8.910   6.062  0.6811 -2.1924 -2.1861
18484THY      O49397   1.719   7.700   2.655  0.5419 -0.3750  0.1560
18484THY     HO49398   1.747   7.788   2.684 -0.1397  1.6617 -0.2458
18484THY    CA149399   1.594   7.722   2.600 -0.0196 -0.2976  0.5004
18484THY    CA249400   1.512   7.618   2.558 -0.5221 -0.8217 -0.5270
18484THY    CP149401   1.561   7.472   2.572 -1.0798  0.2435  0.1164
18484THY    HP149402   1.670   7.471   2.566 -1.0796 -0.4716 -2.5488
18484THY    CP249403   1.513   7.373   2.460  0.5981  0.2176  0.0674
18484THY    HP249404   1.519   7.421   2.362  0.4810  0.4860  0.6333
18484THY    HP349405   1.409   7.343   2.479  0.1458 -1.6701  0.3110
18484THY    HP449406   1.576   7.285   2.442 -0.1740 -1.1437 -0.2342
18484THY    CP349407   1.517   7.424   2.713  0.1084  0.0319 -0.6884
18484THY    HP549408   1.535   7.318   2.730  0.2425 -0.7395 -0.7959
18484THY    HP649409   1.407   7.427   2.713  0.0547  3.0263 -0.0648
18484THY    HP749410   1.566   7.481   2.792 -2.1434  1.5234 -0.7017
18484THY    CA349411   1.388   7.651   2.497 -0.9827 -0.7134  0.2167
18484THY    HA349412   1.320   7.575   2.460  0.5639 -0.3948 -1.3874
18484THY    CA449413   1.337   7.777   2.514  0.1598  0.0027  0.3498
18484THY    HA449414   1.238   7.798   2.476  0.9187 -2.5938 -0.2927
18484THY    CA549415   1.414   7.878   2.562  0.1280 -0.7381  0.4301
18484THY    CM149416   1.361   8.013   2.565  0.1987 -0.0395 -0.4009
18484THY    HM149417   1.371   8.062   2.467  0.4577  0.5297  0.7080
18484THY    HM249418   1.419   8.083   2.626  0.0691 -0.2739 -0.0851
18484THY    HM349419   1.260   8.017   2.607  0.0722 -0.0124 -2.5961
18484THY    CA649420   1.549   7.857   2.592 -0.9833  0.2284  0.6142
18484THY    HA649421   1.612   7.943   2.612  0.7736  1.6292 -0.9153
18485THY      O49422   4.383   0.569   6.450  0.2250 -0.7435 -0.3683
18485THY     HO49423   4.436   0.496   6.488  1.2454  0.7764  1.0953
18485THY    CA149424   4.265   0.571   6.510  0.1580 -0.1150 -0.3257
18485THY    CA249425   4.180   0.682   6.498 -0.3464  0.0711  1.1880
18485THY    CP149426   4.216   0.794   6.401 -0.3378 -0.4033 -0.9395
18485THY    HP149427   4.305   0.766   6.342 -0.1212 -1.3321  1.4798
18485THY    CP249428   4.259   0.923   6.469 -0.2536 -0.6675 -0.0620
18485THY    HP249429   4.366   0.922   6.490 -0.3908  0.4278  1.8309
18485THY    HP349430   4.194   0.949   6.554 -1.3674 -1.6823  0.6030
18485THY    HP449431   4.252   1.007   6.399 -0.4598 -1.4892 -0.7568
18485THY    CP349432   4.100   0.823   6.313  0.3384  1.1934  0.3343
18485THY    HP549433   4.018   0.869   6.371 -0.2630  0.6085  0.0115
18485THY    HP649434   4.068   0.739   6.250 -0.9303  0.5204  1.2820
18485THY    HP749435   4.126   0.883   6.225 -5.1821 -1.3295 -0.3707
18485THY    CA349436   4.062   0.691   6.572  0.9398  0.2682  0.1801
18485THY    HA349437   4.004   0.783   6.574  0.3786  0.2126 -0.1652
18485THY    CA449438   4.037   0.596   6.676  0.0101  0.1017 -0.1935
18485THY    HA449439   3.952   0.593   6.743  1.0432  1.4237 -1.6414
18485THY    CA549440   4.130   0.486   6.685  0.5913 -0.8433 -0.5079
18485THY    CM149441   4.096   0.388   6.788  0.1058 -0.1342 -0.4230
18485THY    HM149442   4.021   0.428   6.857  1.3698  0.2578  1.4231
18485THY    HM249443   4.174   0.331   6.841 -2.6403  2.4077 -2.1212
18485THY    HM349444   4.049   0.307   6.731 -0.4683  0.6699 -0.6664
18485THY    CA649445   4.245   0.476   6.611 -0.3016  0.3619 -0.4537
18485THY    HA649446   4.314   0.394   6.626 -0.0033  2.4485  0.1166
18486THY      O49447   6.122   6.704   3.228  0.7667  0.5454 -0.4053
18486THY     HO49448   6.096   6.699   3.321  0.0750  0.3762 -0.0801
18486THY    CA149449   6.013   6.752   3.169  0.4582 -0.5539  0.0681
18486THY    CA249450   5.977   6.705   3.038 -0.5867 -0.9646 -1.0758
18486THY    CP149451   6.086   6.640   2.948  0.0199 -0.1175  0.6425
18486THY    HP149452   6.179   6.692   2.973  1.7403 -0.4941 -2.0990
18486THY    CP249453   6.059   6.664   2.802 -0.4334  0.0650  0.6342
18486THY    HP249454   6.132   6.610   2.741 -0.7455  0.0995  0.1612
18486THY    HP349455   6.055   6.771   2.779  1.8435  0.1147  0.7720
18486THY    HP449456   5.965   6.618   2.769  0.9761  0.0799 -2.5188
18486THY    CP349457   6.102   6.495   2.986 -0.7342 -0.0359  1.0808
18486THY    HP549458   6.002   6.450   2.996 -1.7743  2.6480  3.6943
18486THY    HP649459   6.172   6.482   3.070 -0.7162  0.4871  3.9549
18486THY    HP749460   6.151   6.439   2.905  2.1370  1.6994  0.8789
18486THY    CA349461   5.843   6.729   3.000  0.0179 -0.2616  0.9181
18486THY    HA349462   5.791   6.700   2.910 -2.2493  1.2918 -0.1088
18486THY    CA449463   5.755   6.805   3.084  0.1528 -0.3459  0.1107
18486THY    HA449464   5.652   6.826   3.057 -0.8696  1.6612 -1.8757
18486THY    CA549465   5.798   6.865   3.201  0.4285  0.2958  0.4637
18486THY    CM149466   5.696   6.941   3.291 -0.2187  0.0262 -0.6247
18486THY    HM149467   5.603   6.887   3.313 -0.3316  1.2062  0.0042
18486THY    HM249468   5.668   7.031   3.236  1.9893 -0.6375 -0.2806
18486THY    HM349469   5.735   6.982   3.385 -1.7293  0.7874 -0.8729
18486THY    CA649470   5.925   6.830   3.243  0.1533 -0.3003 -0.0757
18486THY    HA649471   5.953   6.861   3.343  2.5958 -0.6836 -0.8030
18487THY      O49472   7.538   8.372   3.014  0.3180  0.1293 -0.0985
18487THY     HO49473   7.446   8.397   2.995  0.7168 -0.7268  0.7488
18487THY    CA149474   7.556   8.361   3.149  0.2503  0.1159 -0.7953
18487THY    CA249475   7.680   8.325   3.206  0.1037 -0.0192  0.1320
18487THY    CP149476   7.789   8.268   3.118 -0.0697 -0.5395  0.4936
18487THY    HP149477   7.788   8.292   3.011  1.0866 -1.0949 -1.6926
18487THY    CP249478   7.800   8.106   3.138  0.0986  0.5425 -0.1452
18487THY    HP249479   7.882   8.074   3.072 -0.5603  0.2976 -1.3532
18487THY    HP349480   7.706   8.059   3.108  0.9754 -1.0677 -0.9367
18487THY    HP449481   7.823   8.065   3.237  0.4234  0.4895 -0.0955
18487THY    CP349482   7.930   8.316   3.169 -0.3471  0.2556  0.0196
18487THY    HP549483   7.924   8.424   3.187  0.2681  0.4302  0.0270
18487THY    HP649484   8.010   8.290   3.098 -0.4375  0.5162 -0.9747
18487THY    HP749485   7.964   8.265   3.259  1.4039 -0.8121 -0.7857
18487THY    CA349486   7.703   8.339   3.343  0.5081 -0.6642 -0.1062
18487THY    HA349487   7.794   8.319   3.398 -0.5715  1.6950  0.9698
18487THY    CA449488   7.592   8.378   3.417 -0.3037 -1.2477  0.4163
18487THY    HA449489   7.608   8.370   3.524  0.7441 -1.4220 -0.0504
18487THY    CA549490   7.480   8.431   3.363  0.3694  1.5271 -0.9259
18487THY    CM149491   7.375   8.487   3.451 -0.2398 -0.1508 -0.2908
18487THY    HM149492   7.289   8.513   3.389  0.9158 -0.5588  3.0621
18487THY    HM249493   7.395   8.579   3.506  1.8725  0.6652 -1.1691
18487THY    HM349494   7.343   8.412   3.524 -0.9789 -2.9215 -2.8587
18487THY    CA649495   7.458   8.418   3.231  0.4008 -0.4475 -0.9745
18487THY    HA649496   7.365   8.455   3.190 -1.0974  2.7384 -0.8714
18488THY      O49497   2.166   6.044   6.605  0.1888 -0.6394  0.0630
18488THY     HO49498   2.150   5.975   6.538 -2.3884  0.2883 -0.3700
18488THY    CA149499   2.162   6.156   6.541  0.4776 -0.3553 -0.3408
18488THY    CA249500   2.258   6.255   6.561  0.0807  0.4144 -0.1788
18488THY    CP149501   2.380   6.225   6.645  0.0768 -0.3775 -0.2491
18488THY    HP149502   2.396   6.119   6.666 -0.2505  0.8776 -0.0707
18488THY    CP249503   2.369   6.300   6.783 -0.6492  0.0373  0.0462
18488THY    HP249504   2.451   6.286   6.854 -0.7744 -0.1382 -1.7212
18488THY    HP349505   2.276   6.268   6.831 -0.2204  0.4702 -0.5868
18488THY    HP449506   2.370   6.408   6.765 -1.1515  3.8101  0.8243
18488THY    CP349507   2.504   6.274   6.564 -0.5844 -0.1711 -0.1364
18488THY    HP549508   2.589   6.233   6.619 -1.6945  2.4911  0.9347
18488THY    HP649509   2.522   6.382   6.571  0.2926  0.8914 -0.3406
18488THY    HP749510   2.503   6.232   6.463  0.3290 -0.3924  0.3451
18488THY    CA349511   2.233   6.383   6.501  0.1427 -0.5571  0.3476
18488THY    HA349512   2.306   6.463   6.502  1.3983 -0.3176 -0.7671
18488THY    CA449513   2.119   6.388   6.415 -0.0030  0.2679 -0.6551
18488THY    HA449514   2.084   6.482   6.373 -1.0253  1.3903 -0.5078
18488THY    CA549515   2.017   6.288   6.399 -0.6416 -0.4779  0.3008
18488THY    CM149516   1.895   6.297   6.311  0.0540 -0.0476  0.5538
18488THY    HM149517   1.809   6.285   6.378 -0.3906 -1.1323 -4.2541
18488THY    HM249518   1.885   6.212   6.243 -1.0337  0.5577  0.1895
18488THY    HM349519   1.881   6.394   6.262 -2.1496  0.7069  0.6712
18488THY    CA649520   2.050   6.164   6.458  0.4937 -0.2006  0.4270
18488THY    HA649521   1.978   6.083   6.451  1.8930 -1.0633 -0.7931
18489THY      O49522   1.628   1.463   5.038 -0.5123 -0.5110 -0.4382
18489THY     HO49523   1.662   1.435   5.125 -0.7560 -0.6462 -1.1761
18489THY    CA149524   1.741   1.484   4.965  0.0727 -0.3393  0.1203
18489THY    CA249525   1.746   1.493   4.828  0.9941  0.8678  0.0161
18489THY    CP149526   1.611   1.488   4.746 -0.2360  0.3509  0.0794
18489THY    HP149527   1.533   1.501   4.822 -1.2359 -1.0941  4.6753
18489THY    CP249528   1.593   1.356   4.667 -0.0724 -0.8745 -0.3009
18489THY    HP249529   1.649   1.370   4.574  0.0090 -1.2907 -2.8898
18489THY    HP349530   1.486   1.334   4.661  0.2507  1.2604 -3.1209
18489THY    HP449531   1.637   1.267   4.713 -2.5240  1.6720 -0.3672
18489THY    CP349532   1.595   1.614   4.652 -0.2581 -0.0193  0.3782
18489THY    HP549533   1.658   1.599   4.564  0.1000  0.3485 -0.3574
18489THY    HP649534   1.630   1.704   4.705 -1.0265  0.3999  0.4397
18489THY    HP749535   1.489   1.628   4.630 -0.0693 -0.3820  1.3006
18489THY    CA349536   1.870   1.502   4.760  0.9074  0.5045  0.3280
18489THY    HA349537   1.875   1.504   4.652 -1.0957  0.3814  0.1472
18489THY    CA449538   1.989   1.495   4.833 -0.6973  0.5777  0.8804
18489THY    HA449539   2.084   1.496   4.782  0.2102  1.9377 -2.6761
18489THY    CA549540   1.975   1.482   4.973  0.1466 -0.2264 -0.2511
18489THY    CM149541   2.097   1.454   5.050 -0.1065 -0.2857  0.5289
18489THY    HM149542   2.168   1.388   4.999 -1.1219 -1.8139  0.5839
18489THY    HM249543   2.088   1.405   5.149 -0.0346 -1.5271 -2.1932
18489THY    HM349544   2.144   1.551   5.067 -2.0867 -1.5316  1.7662
18489THY    CA649545   1.856   1.481   5.041  0.1635  0.1334  0.1417
18489THY    HA649546   1.840   1.475   5.148 -1.2806 -0.0644  0.2020
18490THY      O49547   9.406   0.240   6.065 -0.3881 -0.3851  0.4295
18490THY     HO49548   9.501   0.218   6.073 -0.9728  0.1375 -2.2469
18490THY    CA149549   9.397   0.368   6.085 -0.2500 -0.4165 -0.1988
18490THY    CA249550   9.376   0.450   5.984  0.1417 -0.2842 -0.0678
18490THY    CP149551   9.363   0.401   5.838  0.8495 -0.2204 -0.2268
18490THY    HP149552   9.339   0.294   5.837 -0.0717  1.7436 -0.0705
18490THY    CP249553   9.497   0.417   5.771  0.0528 -0.2570  0.0856
18490THY    HP249554   9.546   0.319   5.762  1.5185  0.9983  0.6642
18490THY    HP349555   9.570   0.471   5.832  0.3500 -0.8999  0.4174
18490THY    HP449556   9.479   0.470   5.677 -0.1417 -0.9326 -1.1327
18490THY    CP349557   9.250   0.463   5.759 -0.3187  0.2498  0.3359
18490THY    HP549558   9.234   0.405   5.667 -0.8396  0.9150 -0.6008
18490THY    HP649559   9.254   0.570   5.734  1.3425 -1.5876 -0.0914
18490THY    HP749560   9.154   0.454   5.812  0.0135  0.9752  0.9308
18490THY    CA349561   9.357   0.588   6.010  0.5287 -0.1205  0.6592
18490THY    HA349562   9.332   0.650   5.925  1.5086 -2.2858 -1.7482
18490THY    CA449563   9.356   0.637   6.142 -0.7751 -0.3190 -0.2044
18490THY    HA449564   9.344   0.743   6.161  1.7869  0.2150  0.0579
18490THY    CA549565   9.384   0.550   6.249 -0.3076  0.3530 -0.3771
18490THY    CM149566   9.405   0.599   6.386  0.2861 -0.3325 -0.0800
18490THY    HM149567   9.399   0.512   6.453 -0.4691 -1.2748 -0.7844
18490THY    HM249568   9.332   0.674   6.418  0.2698  2.2549 -1.1051
18490THY    HM349569   9.504   0.644   6.396  1.0636 -2.3106 -1.2178
18490THY    CA649570   9.400   0.417   6.223 -0.3583 -0.4764 -0.9080
18490THY    HA649571   9.421   0.347   6.303 -1.4768  0.0640 -0.6512
18491THY      O49572   5.748   5.178   6.103 -0.2289 -0.5285 -0.3031
18491THY     HO49573   5.695   5.254   6.074 -1.8775  1.9747 -0.4020
18491THY    CA149574   5.774   5.184   6.239 -0.0273 -0.1584 -0.5945
18491THY    CA249575   5.735   5.298   6.314 -1.2635  0.2487  0.5924
18491THY    CP149576   5.656   5.411   6.251  0.2545 -0.3309  0.7877
18491THY    HP149577   5.673   5.403   6.143 -3.3257 -1.0791  1.2898
18491THY    CP249578   5.692   5.558   6.292  0.2764  0.4917 -1.1175
18491THY    HP249579   5.694   5.571   6.401  1.3321  0.5429 -1.6512
18491THY    HP349580   5.634   5.631   6.235  0.2613  0.6471 -1.0079
18491THY    HP449581   5.791   5.580   6.252 -0.4488 -1.1998 -0.8069
18491THY    CP349582   5.504   5.376   6.269  0.3798 -0.4646  0.0796
18491THY    HP549583   5.491   5.271   6.241 -1.0642  2.2968 -0.5757
18491THY    HP649584   5.435   5.444   6.219  0.3574 -1.6590 -0.7895
18491THY    HP749585   5.485   5.366   6.376  1.0625 -0.3458 -0.0166
18491THY    CA349586   5.756   5.290   6.456  0.3242  0.3152  0.1237
18491THY    HA349587   5.728   5.375   6.517  0.5139 -2.1282  2.0514
18491THY    CA449588   5.818   5.178   6.512 -0.4976 -0.2522  0.7298
18491THY    HA449589   5.836   5.178   6.619  1.2566 -0.5288  0.9430
18491THY    CA549590   5.857   5.070   6.434 -0.4360 -0.3477  0.0635
18491THY    CM149591   5.927   4.946   6.496  0.3925 -0.3163 -1.1289
18491THY    HM149592   5.912   4.852   6.440  0.3297  3.3189 -3.4875
18491THY    HM249593   5.888   4.923   6.596  1.7600  0.2599 -0.9851
18491THY    HM349594   6.034   4.963   6.509  0.2297 -0.2247 -0.1534
18491THY    CA649595   5.836   5.075   6.296  0.3339 -0.2020 -0.5091
18491THY    HA649596   5.856   4.990   6.232 -0.5055 -1.2740  0.0632
18492THY      O49597   4.099   5.588   4.166  0.2136 -0.6318 -0.1306
18492THY     HO49598   4.129   5.677   4.190 -1.9740  0.9944  0.2479
18492THY    CA149599   4.118   5.568   4.032  0.0578 -0.2610 -0.6890
18492THY    CA249600   4.090   5.442   3.978 -0.4296  0.1832 -0.2943
18492THY    CP149601   4.031   5.327   4.056  0.1771  0.0982  0.0562
18492THY    HP149602   4.006   5.364   4.156  0.1509  0.5208 -1.0609
18492THY    CP249603   4.141   5.216   4.071 -0.0995 -0.8776  0.0343
18492THY    HP249604   4.231   5.247   4.125 -1.0710 -0.5636  2.6268
18492THY    HP349605   4.165   5.182   3.970  0.3570 -0.5200 -0.7091
18492THY    HP449606   4.091   5.136   4.126 -0.1917  0.7692  1.1580
18492THY    CP349607   3.895   5.271   3.994  0.7203 -0.1893 -0.4834
18492THY    HP549608   3.835   5.363   3.986  0.6179 -0.2920 -0.5596
18492THY    HP649609   3.843   5.209   4.068 -1.8122  0.8233  2.5542
18492THY    HP749610   3.882   5.220   3.898 -3.0570 -1.2193  2.0301
18492THY    CA349611   4.099   5.427   3.840 -0.7877 -0.0426  0.0181
18492THY    HA349612   4.070   5.340   3.781  1.2506 -0.8184 -0.1681
18492THY    CA449613   4.142   5.530   3.757  0.3588  0.0264 -0.0271
18492THY    HA449614   4.161   5.510   3.653 -1.7922 -0.1156 -1.6309
18492THY    CA549615   4.184   5.647   3.816 -0.5783 -0.0902 -0.2738
18492THY    CM149616   4.228   5.766   3.728  0.1933 -0.0186 -0.0573
18492THY    HM149617   4.239   5.730   3.625 -0.8433  0.1405 -0.8915
18492THY    HM249618   4.325   5.814   3.745  0.7808 -4.2171  0.6224
18492THY    HM349619   4.150   5.842   3.718  0.5017  1.6749  0.5241
18492THY    CA649620   4.171   5.669   3.952 -0.2613 -0.3668  0.0040
18492THY    HA649621   4.183   5.767   3.997  0.9511 -2.3859  0.8420
18493THY      O49622   8.312   0.753   3.350  0.2981 -0.3983  0.5320
18493THY     HO49623   8.257   0.756   3.430  2.1915  0.9902  0.2993
18493THY    CA149624   8.253   0.652   3.271 -0.2075 -0.2183  0.3087
18493THY    CA249625   8.319   0.591   3.162 -0.8791  0.3149 -0.2450
18493THY    CP149626   8.461   0.643   3.133 -0.3803  0.0085  0.3396
18493THY    HP149627   8.513   0.674   3.225 -0.9702  0.1607  0.9024
18493THY    CP249628   8.466   0.771   3.043  0.0035  0.0273  0.4883
18493THY    HP249629   8.552   0.773   2.976  0.1464  0.2199  0.9891
18493THY    HP349630   8.490   0.846   3.120 -2.5235  0.7583  0.6602
18493THY    HP449631   8.367   0.793   3.000 -0.9593  1.9153  0.0889
18493THY    CP349632   8.558   0.524   3.069  1.0373  0.6781  0.4821
18493THY    HP549633   8.570   0.433   3.128 -2.0913  2.3092  1.0070
18493THY    HP649634   8.659   0.557   3.042  2.8109  0.0639 -4.5281
18493THY    HP749635   8.516   0.497   2.972 -0.4687  1.2998  0.5344
18493THY    CA349636   8.255   0.501   3.081  0.1555  0.4361  0.8146
18493THY    HA349637   8.293   0.463   2.987 -2.9828 -1.1613  1.2913
18493THY    CA449638   8.127   0.459   3.121  0.0806  0.5793  0.2119
18493THY    HA449639   8.073   0.386   3.062 -0.0960  0.9321  0.0512
18493THY    CA549640   8.068   0.507   3.237  0.3844  0.3365 -0.5335
18493THY    CM149641   7.928   0.456   3.279 -0.2937 -0.4919 -0.7373
18493THY    HM149642   7.841   0.497   3.226  0.0338 -0.4123  0.0818
18493THY    HM249643   7.904   0.493   3.380 -1.3856 -0.6767 -0.8968
18493THY    HM349644   7.914   0.347   3.272 -2.0173  1.6191 -0.7290
18493THY    CA649645   8.127   0.605   3.311 -0.8107 -0.1318 -0.4923
18493THY    HA649646   8.074   0.657   3.391  0.9094  0.0606  1.0719
18494THY      O49647   3.754   2.894   4.953 -0.1401 -0.1000  0.5818
18494THY     HO49648   3.831   2.840   4.928 -0.1446 -1.8366  1.3138
18494THY    CA149649   3.654   2.827   4.901 -0.7970  0.0368  0.0945
18494THY    CA249650   3.525   2.879   4.879  0.0168  0.4017 -0.1920
18494THY    CP149651   3.493   3.016   4.929  0.1623  0.0835  0.4554
18494THY    HP149652   3.581   3.072   4.963  0.8557 -1.1027  0.1144
18494THY    CP249653   3.398   3.007   5.051  0.5954 -0.0314  0.0894
18494THY    HP249654   3.306   2.949   5.040 -0.3574  1.6139  1.2031
18494THY    HP349655   3.359   3.097   5.100 -2.7806  0.9312 -1.7195
18494THY    HP449656   3.447   2.948   5.130  0.1205  0.0614 -0.1841
18494THY    CP349657   3.416   3.094   4.819  0.1250 -0.1391 -0.0485
18494THY    HP549658   3.478   3.096   4.729 -0.3549 -0.5223 -1.4440
18494THY    HP649659   3.401   3.199   4.847 -1.9917 -2.3051  0.3159
18494THY    HP749660   3.321   3.044   4.799  0.0465  3.3755 -1.6038
18494THY    CA349661   3.432   2.799   4.803 -0.3083  0.5607 -1.1817
18494THY    HA349662   3.336   2.838   4.773  1.2280 -2.1666  0.8417
18494THY    CA449663   3.466   2.672   4.762  0.2842 -0.0728 -0.2043
18494THY    HA449664   3.389   2.613   4.714  1.1767  1.1326 -2.5052
18494THY    CA549665   3.594   2.619   4.789 -0.0146  0.0682  0.1492
18494THY    CM149666   3.627   2.485   4.733  0.5465 -0.0203 -0.6611
18494THY    HM149667   3.550   2.409   4.745 -0.6697 -0.9871  0.3613
18494THY    HM249668   3.726   2.448   4.760  0.7572 -2.5773 -2.2020
18494THY    HM349669   3.627   2.504   4.625  1.2522  0.0169 -0.4160
18494THY    CA649670   3.693   2.702   4.851  0.7369 -0.5236 -0.7597
18494THY    HA649671   3.790   2.661   4.878  0.5923  0.5054 -0.4357
18495THY      O49672   5.972   1.613   7.306  0.2554  0.0939  0.2022
18495THY     HO49673   5.930   1.548   7.366  0.9178 -0.2632 -0.5779
18495THY    CA149674   6.067   1.663   7.381 -0.3614  0.2643 -0.0513
18495THY    CA249675   6.151   1.762   7.325 -0.3842 -0.1497 -0.3660
18495THY    CP149676   6.150   1.807   7.180 -0.2796  0.6265  1.1400
18495THY    HP149677   6.077   1.745   7.127  1.6451 -0.0128 -0.7306
18495THY    CP249678   6.287   1.793   7.112  0.2292 -0.7483  0.2737
18495THY    HP249679   6.329   1.692   7.125  0.1092 -0.3330  0.2749
18495THY    HP349680   6.366   1.854   7.156  2.0918 -2.0025 -1.1066
18495THY    HP449681   6.274   1.821   7.007 -1.3811 -0.3116  1.2924
18495THY    CP349682   6.098   1.947   7.150 -0.7026 -0.8775  0.0855
18495THY    HP549683   6.103   1.964   7.042  1.2455 -0.9703 -0.8554
18495THY    HP649684   6.162   2.025   7.193 -0.1587  0.1982 -0.9208
18495THY    HP749685   5.997   1.961   7.192 -0.5290  0.1446 -1.4302
18495THY    CA349686   6.235   1.835   7.413  0.6952  0.1333  0.4895
18495THY    HA349687   6.300   1.910   7.369 -2.2502 -1.1194  2.4971
18495THY    CA449688   6.228   1.816   7.562 -0.5733 -0.2559  0.2529
18495THY    HA449689   6.282   1.873   7.637  1.7303 -0.8586 -0.9691
18495THY    CA549690   6.149   1.713   7.610 -0.1536  1.1053  0.7503
18495THY    CM149691   6.127   1.715   7.755 -0.0109 -0.5485  0.3044
18495THY    HM149692   6.022   1.695   7.776 -0.1848 -0.2056  1.5482
18495THY    HM249693   6.156   1.810   7.800 -0.5855 -1.7348  1.0550
18495THY    HM349694   6.184   1.635   7.804  0.6968  0.1379  1.2121
18495THY    CA649695   6.069   1.641   7.520  0.9230 -0.6122  0.2664
18495THY    HA649696   5.997   1.575   7.567  2.1058  0.2377 -0.4544
18496THY      O49697   4.195   0.618   5.316 -0.4554 -0.9037 -0.1772
18496THY     HO49698   4.115   0.588   5.269 -0.1804 -1.4519 -0.0708
18496THY    CA149699   4.294   0.639   5.219  1.0795  0.3752  0.7051
18496THY    CA249700   4.420   0.608   5.251 -0.5178 -0.7178  0.1241
18496THY    CP149701   4.452   0.564   5.399 -0.3129  0.5063 -0.0607
18496THY    HP149702   4.370   0.499   5.431  0.1504  0.9302 -0.4473
18496THY    CP249703   4.471   0.688   5.491 -0.9389 -0.5030 -0.1533
18496THY    HP249704   4.395   0.766   5.477 -0.0492  0.3302  0.9003
18496THY    HP349705   4.564   0.745   5.477  0.0605  2.7957 -0.7985
18496THY    HP449706   4.482   0.665   5.597  2.0727 -0.1393  2.3072
18496THY    CP349707   4.572   0.476   5.404  0.0170  0.3782  0.0990
18496THY    HP549708   4.657   0.545   5.414 -0.0263  1.1483  0.0570
18496THY    HP649709   4.582   0.401   5.325  1.9455 -0.0514  0.7618
18496THY    HP749710   4.564   0.415   5.495 -0.0810 -1.6104 -3.0877
18496THY    CA349711   4.518   0.620   5.138 -0.1715 -0.4829 -0.6598
18496THY    HA349712   4.613   0.569   5.146  0.8289 -0.9850  1.0380
18496THY    CA449713   4.474   0.675   5.019  0.3616 -0.6683  0.9272
18496THY    HA449714   4.540   0.674   4.933  1.1219 -0.1151  1.8079
18496THY    CA549715   4.347   0.730   5.004 -0.4818  0.4068  0.4855
18496THY    CM149716   4.307   0.793   4.875 -0.7081 -0.1760  0.9936
18496THY    HM149717   4.201   0.776   4.853 -0.4737 -0.6040  0.0428
18496THY    HM249718   4.364   0.737   4.800 -1.5477 -0.2614  0.2342
18496THY    HM349719   4.342   0.897   4.877  0.7035 -1.7142  0.5920
18496THY    CA649720   4.251   0.701   5.096  0.1833 -0.5461  0.0703
18496THY    HA649721   4.148   0.725   5.072 -0.1888  1.5089  0.7159
18497THY      O49722   6.669   4.773   7.341  0.0550 -0.2535  0.1517
18497THY     HO49723   6.645   4.679   7.343 -1.5929  0.3734  0.5507
18497THY    CA149724   6.545   4.828   7.339 -0.2103 -0.4777 -0.2659
18497THY    CA249725   6.507   4.911   7.444  0.2759 -0.2241 -0.7005
18497THY    CP149726   6.597   4.918   7.564 -0.7938 -0.5042 -0.2990
18497THY    HP149727   6.647   4.821   7.575  1.0864  0.9262  0.7597
18497THY    CP249728   6.523   4.947   7.700  0.3474  0.1942  0.4029
18497THY    HP249729   6.433   4.885   7.705  0.1179  0.1435  0.7329
18497THY    HP349730   6.494   5.052   7.706 -2.5755 -0.7152 -0.2701
18497THY    HP449731   6.581   4.919   7.789  0.4829  0.6206  1.9254
18497THY    CP349732   6.705   5.023   7.541 -0.1657  0.2331  0.6257
18497THY    HP549733   6.783   5.018   7.618  1.6590 -1.4053  2.3071
18497THY    HP649734   6.657   5.121   7.535  0.5359 -0.5859  0.9298
18497THY    HP749735   6.753   4.999   7.446  0.5191 -0.1930  3.4269
18497THY    CA349736   6.378   4.976   7.431  0.2513 -0.8136  0.2979
18497THY    HA349737   6.338   5.042   7.507  0.3154  1.8532 -2.5105
18497THY    CA449738   6.289   4.947   7.330 -0.0123 -0.4597  0.2321
18497THY    HA449739   6.194   4.999   7.328 -0.8164 -2.1728 -1.2017
18497THY    CA549740   6.326   4.862   7.230 -0.4259  0.4665  0.8629
18497THY    CM149741   6.221   4.840   7.119 -0.1897 -0.3276 -0.1744
18497THY    HM149742   6.136   4.778   7.150  1.0432 -0.5518 -2.0529
18497THY    HM249743   6.273   4.787   7.039  1.0945  1.1200 -1.1690
18497THY    HM349744   6.185   4.937   7.084 -1.4119  0.0890 -0.4561
18497THY    CA649745   6.455   4.802   7.233 -0.5210  0.4862  0.0523
18497THY    HA649746   6.472   4.737   7.147 -3.0743  0.2444 -0.4086
18498THY      O49747   7.271   4.823   4.724 -0.0277 -0.5768 -0.1906
18498THY     HO49748   7.303   4.912   4.702 -1.2442  0.0348  0.4255
18498THY    CA149749   7.257   4.832   4.861 -0.0252  0.5247 -0.4088
18498THY    CA249750   7.238   4.722   4.946 -0.6784 -1.1009  0.1453
18498THY    CP149751   7.249   4.585   4.893 -0.0283  0.4124 -0.1794
18498THY    HP149752   7.219   4.579   4.788 -0.1226  0.3175  1.4126
18498THY    CP249753   7.139   4.493   4.959 -0.2471 -0.4333  0.2563
18498THY    HP249754   7.131   4.392   4.917 -0.3556 -0.7579  0.3980
18498THY    HP349755   7.044   4.546   4.945 -0.3873 -1.0600 -0.1459
18498THY    HP449756   7.155   4.487   5.067 -0.8110 -0.3114  0.8698
18498THY    CP349757   7.392   4.520   4.905  0.1740 -0.3218 -0.2838
18498THY    HP549758   7.388   4.417   4.867 -0.4569  0.5477 -0.5903
18498THY    HP649759   7.410   4.513   5.012  0.1714 -0.0297  2.8164
18498THY    HP749760   7.476   4.573   4.857  0.2082 -1.9921 -1.7351
18498THY    CA349761   7.225   4.750   5.089  0.6502 -0.0451 -0.0577
18498THY    HA349762   7.223   4.664   5.155  0.6216 -0.4735 -0.3884
18498THY    CA449763   7.215   4.879   5.134 -0.3580 -0.6413 -0.1202
18498THY    HA449764   7.199   4.902   5.238  0.8947 -0.6043  0.6502
18498THY    CA549765   7.239   4.982   5.045  0.5691 -0.0863 -0.4813
18498THY    CM149766   7.241   5.126   5.087  0.0226 -0.8291  0.2539
18498THY    HM149767   7.156   5.186   5.051 -1.2146  0.6588 -0.5409
18498THY    HM249768   7.339   5.166   5.057  0.7354 -0.8598 -1.4244
18498THY    HM349769   7.238   5.132   5.197  0.1551 -0.7952 -0.2971
18498THY    CA649770   7.252   4.960   4.908  0.3433  0.4461 -0.0242
18498THY    HA649771   7.257   5.048   4.844  2.1263 -0.6000 -0.8492
18499THY      O49772   8.135   1.236   3.161  0.1002 -0.7298  0.2104
18499THY     HO49773   8.206   1.186   3.204 -0.2689 -0.4093 -0.0453
18499THY    CA149774   8.183   1.263   3.042  0.8761 -0.2676 -0.3520
18499THY    CA249775   8.104   1.309   2.933 -0.3656 -0.2808 -0.9828
18499THY    CP149776   7.953   1.312   2.938  0.8314  0.7649 -0.1545
18499THY    HP149777   7.914   1.289   3.037  1.7459  1.0190 -0.6509
18499THY    CP249778   7.902   1.196   2.854  0.0508  0.8028  0.5438
18499THY    HP249779   7.797   1.208   2.825 -0.9170  3.5577 -0.5375
18499THY    HP349780   7.909   1.097   2.900 -3.0640  4.0122  1.6089
18499THY    HP449781   7.968   1.186   2.767  3.2850  3.1261 -0.0311
18499THY    CP349782   7.909   1.454   2.893  0.0504  0.0538  0.7364
18499THY    HP549783   7.802   1.467   2.914 -0.0696 -0.3357  0.4298
18499THY    HP649784   7.918   1.468   2.785  0.4208 -0.2342 -1.3683
18499THY    HP749785   7.959   1.535   2.946 -1.7540  1.3956  1.0211
18499THY    CA349786   8.171   1.342   2.810 -0.6632  0.3443 -0.6137
18499THY    HA349787   8.127   1.379   2.718 -0.0526  0.1677 -0.3217
18499THY    CA449788   8.311   1.343   2.809 -0.9289 -0.6171  0.1805
18499THY    HA449789   8.368   1.383   2.725  1.7287  1.3580  0.8061
18499THY    CA549790   8.387   1.280   2.917 -0.5049  0.1484  0.4222
18499THY    CM149791   8.537   1.266   2.899  0.4209 -0.7920 -0.2086
18499THY    HM149792   8.584   1.186   2.957 -0.1777 -1.5654 -1.1418
18499THY    HM249793   8.598   1.354   2.924  0.0772 -0.1993 -0.1310
18499THY    HM349794   8.557   1.252   2.792  2.6862 -0.2201 -1.9620
18499THY    CA649795   8.317   1.239   3.031 -0.0001  0.5936 -0.0725
18499THY    HA649796   8.377   1.207   3.116  1.0342  0.0108  0.2596
18500THY      O49797   5.704   4.911   5.970 -0.1500 -0.3405 -0.0181
18500THY     HO49798   5.778   4.949   6.021 -0.9328  0.0079  1.0941
18500THY    CA149799   5.732   4.929   5.840  0.1342  0.8652  0.0722
18500THY    CA249800   5.628   4.930   5.743  0.0234  0.5596  0.5479
18500THY    CP149801   5.481   4.892   5.773  0.3893 -0.2876 -0.1215
18500THY    HP149802   5.476   4.862   5.878  0.9308  0.5578  2.5583
18500THY    CP249803   5.447   4.772   5.689  0.6258 -0.1568  0.2289
18500THY    HP249804   5.461   4.792   5.582  1.1823 -0.5332 -1.8957
18500THY    HP349805   5.348   4.726   5.700  0.6467  0.5294  0.3334
18500THY    HP449806   5.528   4.701   5.710  0.7164 -0.1459  0.3340
18500THY    CP349807   5.381   5.010   5.752 -0.9871  0.6206  0.0609
18500THY    HP549808   5.400   5.067   5.660 -0.6939  1.7458  1.8433
18500THY    HP649809   5.392   5.089   5.826  1.5402  1.0097 -0.5690
18500THY    HP749810   5.275   4.981   5.742 -1.2006  2.3956  0.1175
18500THY    CA349811   5.665   4.979   5.617  0.5118 -0.0036 -0.0702
18500THY    HA349812   5.589   4.991   5.541  0.2834  0.3211  0.5936
18500THY    CA449813   5.793   5.012   5.587  0.5629 -0.1907  0.3687
18500THY    HA449814   5.812   5.039   5.484  0.2408 -0.4193 -0.2675
18500THY    CA549815   5.893   5.014   5.684  0.1522 -0.0703 -0.2580
18500THY    CM149816   6.032   5.063   5.654  0.4312 -0.3003  0.4618
18500THY    HM149817   6.113   4.991   5.673 -0.3688  2.6937  0.2302
18500THY    HM249818   6.050   5.154   5.711 -1.1051  1.0753 -0.0535
18500THY    HM349819   6.039   5.083   5.546 -0.9663 -0.7523 -1.1960
18500THY    CA649820   5.858   4.988   5.817 -0.1779 -0.1085 -0.5517
18500THY    HA649821   5.935   5.005   5.891 -1.3731  0.4796  3.3634
18501THY      O49822   0.629   1.502   3.383 -0.4802 -0.2763 -0.0892
18501THY     HO49823   0.574   1.518   3.461 -1.3112 -0.5664 -1.4279
18501THY    CA149824   0.762   1.511   3.420  0.0508 -0.2398  0.5206
18501THY    CA249825   0.860   1.542   3.318  0.2096 -0.3123  0.4561
18501THY    CP149826   0.828   1.555   3.168  0.0408 -0.3772 -0.4580
18501THY    HP149827   0.726   1.592   3.179  1.0540  1.6525  1.9980
18501THY    CP249828   0.836   1.424   3.095  0.6850 -0.2972  0.6961
18501THY    HP249829   0.823   1.443   2.988 -0.9667 -0.4236 -0.8862
18501THY    HP349830   0.767   1.345   3.126  1.6807 -0.6923 -0.3499
18501THY    HP449831   0.927   1.365   3.110 -0.1524 -0.9591 -0.8188
18501THY    CP349832   0.905   1.667   3.092  0.0849  0.8174 -0.3703
18501THY    HP549833   0.837   1.746   3.059  0.9213 -1.1075 -0.3986
18501THY    HP649834   0.949   1.640   2.995  1.4467  0.8611  1.4891
18501THY    HP749835   0.995   1.709   3.138  2.3258 -1.6799 -2.1100
18501THY    CA349836   0.992   1.564   3.360  0.5912 -0.1300 -0.4897
18501THY    HA349837   1.073   1.592   3.293  0.0789 -0.2319  0.8237
18501THY    CA449838   1.017   1.561   3.496  0.1443 -0.8289  0.1388
18501THY    HA449839   1.117   1.595   3.517  0.3936 -0.1271 -0.9782
18501THY    CA549840   0.913   1.540   3.590  0.3806  0.0654 -0.4093
18501THY    CM149841   0.943   1.526   3.734  0.0852  0.4433 -0.3006
18501THY    HM149842   0.848   1.542   3.786 -1.3328 -2.2830  0.7222
18501THY    HM249843   1.028   1.594   3.751 -1.2176  1.1586  1.2218
18501THY    HM349844   0.975   1.422   3.748  0.6311  1.2151 -0.0391
18501THY    CA649845   0.792   1.498   3.554  0.0420  0.3551  0.1810
18501THY    HA649846   0.726   1.453   3.627  0.8914  1.3229  0.4671
18502THY      O49847   4.734   7.071   3.291  0.2423  0.2443  0.2502
18502THY     HO49848   4.716   7.139   3.358 -1.8738  0.5523 -0.5088
18502THY    CA149849   4.698   6.952   3.347  0.5211 -0.2179 -0.4540
18502THY    CA249850   4.774   6.836   3.326  0.6327 -0.3767  0.5314
18502THY    CP149851   4.897   6.848   3.233 -0.1411  0.7950  0.1594
18502THY    HP149852   4.928   6.953   3.230  0.2594  1.6577  0.0717
18502THY    CP249853   4.860   6.802   3.089 -0.0676  0.7015  0.4426
18502THY    HP249854   4.751   6.803   3.084 -0.0586  0.2880 -0.2960
18502THY    HP349855   4.896   6.700   3.070  1.0411  0.1443  0.9193
18502THY    HP449856   4.903   6.861   3.007  1.0610  0.1744 -1.0503
18502THY    CP349857   5.019   6.769   3.277 -0.5931  0.1663 -0.2502
18502THY    HP549858   5.100   6.792   3.206 -0.1072  0.9792  0.6248
18502THY    HP649859   5.005   6.661   3.272  2.4350  0.5615 -0.7553
18502THY    HP749860   5.056   6.784   3.378  1.5992 -0.7153  0.7183
18502THY    CA349861   4.719   6.720   3.375 -0.4383 -0.1457  0.3352
18502THY    HA349862   4.766   6.624   3.354 -0.3518 -0.7004  0.4928
18502THY    CA449863   4.606   6.719   3.457  0.3515  0.1693 -0.0031
18502THY    HA449864   4.583   6.628   3.511  3.4459  0.8617 -0.4724
18502THY    CA549865   4.543   6.843   3.490 -0.5401 -0.1508  0.2055
18502THY    CM149866   4.445   6.841   3.603  0.0569 -0.2687 -0.4123
18502THY    HM149867   4.493   6.854   3.701  0.0301 -0.2652 -0.3342
18502THY    HM249868   4.377   6.755   3.601 -1.0150 -0.7735  0.4190
18502THY    HM349869   4.386   6.932   3.585 -0.2143 -2.5304 -0.9761
18502THY    CA649870   4.586   6.961   3.436 -0.5819  0.0370 -0.5252
18502THY    HA649871   4.538   7.055   3.463  0.2949  0.8586 -0.3099
18503THY      O49872   1.145   2.364   7.356 -0.8358 -0.1789 -0.3744
18503THY     HO49873   1.144   2.313   7.439 -2.2216  0.1438  0.1413
18503THY    CA149874   1.170   2.280   7.250  0.2730 -0.2429  1.0840
18503THY    CA249875   1.099   2.285   7.126  0.0792 -0.5716 -0.2335
18503THY    CP149876   1.025   2.411   7.087 -0.4977 -0.3535  0.0794
18503THY    HP149877   1.019   2.467   7.181  0.6073  0.0372 -0.4185
18503THY    CP249878   0.885   2.384   7.034 -0.2627  0.3579  0.4531
18503THY    HP249879   0.833   2.310   7.096  1.0591  0.6181 -0.2740
18503THY    HP349880   0.877   2.339   6.934 -1.8453  0.5387  0.2696
18503THY    HP449881   0.819   2.472   7.037  0.5592  1.8373  1.0464
18503THY    CP349882   1.098   2.491   6.984 -0.4166  0.5075  0.8569
18503THY    HP549883   1.128   2.435   6.895  1.1672  1.3697  0.2940
18503THY    HP649884   1.182   2.542   7.032  0.0550 -1.8482  2.4534
18503THY    HP749885   1.029   2.569   6.948 -1.9175 -0.3704 -0.7944
18503THY    CA349886   1.108   2.176   7.038 -0.5246  0.7310 -0.5985
18503THY    HA349887   1.058   2.176   6.942  0.8701 -0.0295 -0.1037
18503THY    CA449888   1.177   2.055   7.075 -0.3951  0.6563  0.4152
18503THY    HA449889   1.170   1.968   7.010 -2.2075  0.7871  0.4203
18503THY    CA549890   1.242   2.050   7.200  0.1612  0.2338 -0.0537
18503THY    CM149891   1.308   1.914   7.257 -0.2751  0.0654 -1.0332
18503THY    HM149892   1.229   1.867   7.316 -4.0520 -2.3849  1.6516
18503THY    HM249893   1.396   1.931   7.319 -0.0054 -0.2344 -1.3079
18503THY    HM349894   1.322   1.853   7.166 -4.6821 -0.4126 -1.6899
18503THY    CA649895   1.240   2.165   7.284 -0.0007 -0.3196 -0.4190
18503THY    HA649896   1.289   2.154   7.381  2.5462 -1.5340 -0.6527
18504THY      O49897   4.796   6.012   3.862  0.9319 -0.5101 -0.0151
18504THY     HO49898   4.800   6.094   3.914  1.4321 -2.8366  1.5416
18504THY    CA149899   4.805   6.060   3.740 -0.2813 -0.1818  0.2124
18504THY    CA249900   4.895   6.002   3.648  0.1367  0.4219  0.4798
18504THY    CP149901   4.985   5.886   3.673 -0.1982 -0.8843  0.3941
18504THY    HP149902   4.967   5.865   3.779  1.3300 -0.5114  0.8439
18504THY    CP249903   5.133   5.925   3.676  0.8579  0.6347  0.5942
18504THY    HP249904   5.196   5.836   3.685  0.7889  0.2591  0.5070
18504THY    HP349905   5.172   5.992   3.754  2.3389 -0.6733  1.3282
18504THY    HP449906   5.150   5.975   3.580 -1.8211 -0.1500  0.1471
18504THY    CP349907   4.953   5.760   3.589  0.8904 -0.5928 -0.1447
18504THY    HP549908   5.003   5.771   3.493  0.7578 -0.6283  0.1617
18504THY    HP649909   4.845   5.743   3.579  0.9676 -0.3687 -0.8220
18504THY    HP749910   5.010   5.675   3.629  0.5984  1.8136  0.6895
18504THY    CA349911   4.885   6.051   3.515  0.4354  0.1240  0.4417
18504THY    HA349912   4.949   6.005   3.440 -1.6940 -0.6964 -1.3570
18504THY    CA449913   4.802   6.153   3.483  0.4539 -0.0938  0.0208
18504THY    HA449914   4.800   6.201   3.385  0.8348  0.8654  2.1149
18504THY    CA549915   4.725   6.214   3.576 -0.0986 -0.2958  0.0401
18504THY    CM149916   4.643   6.332   3.532 -0.7838 -0.0314  0.2526
18504THY    HM149917   4.546   6.310   3.486 -0.6073 -0.2128 -0.1454
18504THY    HM249918   4.696   6.402   3.466 -1.1368 -1.1457 -0.5010
18504THY    HM349919   4.621   6.388   3.624  0.6623 -0.5033  1.6841
18504THY    CA649920   4.724   6.168   3.708  0.1242 -0.8541  1.0538
18504THY    HA649921   4.671   6.227   3.782 -0.4988 -0.2234 -0.2589
18505THY      O49922   6.570   7.687   2.551  0.0914  0.4251  0.9785
18505THY     HO49923   6.535   7.767   2.510 -0.9351 -1.4929 -0.3624
18505THY    CA149924   6.696   7.721   2.568  0.2123  0.1700 -0.3767
18505THY    CA249925   6.779   7.655   2.662  0.1107  0.5373 -0.7067
18505THY    CP149926   6.739   7.534   2.742 -0.1755 -0.3882  0.5160
18505THY    HP149927   6.651   7.488   2.695  0.7813  0.0093 -1.9232
18505THY    CP249928   6.711   7.576   2.888 -0.4473 -0.5215 -0.5563
18505THY    HP249929   6.661   7.491   2.937  0.5725  0.5503 -0.5577
18505THY    HP349930   6.639   7.659   2.894  0.9631 -1.0500  0.7490
18505THY    HP449931   6.796   7.608   2.949 -1.6054  1.5575 -1.2432
18505THY    CP349932   6.841   7.418   2.748 -0.2612  0.5788 -0.7226
18505THY    HP549933   6.931   7.444   2.804  1.8589 -2.8865  0.1288
18505THY    HP649934   6.876   7.392   2.647  0.4833  0.4541  0.6580
18505THY    HP749935   6.801   7.327   2.793  1.5170 -0.3194 -2.0087
18505THY    CA349936   6.910   7.710   2.674  0.0012  0.9600  0.5633
18505THY    HA349937   6.981   7.678   2.750  0.5196  1.2174  2.2378
18505THY    CA449938   6.956   7.817   2.592 -0.4728  0.2988  0.2144
18505THY    HA449939   7.060   7.842   2.608  0.3392 -2.2917 -1.1472
18505THY    CA549940   6.874   7.872   2.496 -0.1210  0.6932 -0.3801
18505THY    CM149941   6.937   7.970   2.405  0.3632 -0.1671  1.4128
18505THY    HM149942   7.044   7.943   2.405 -0.1089 -0.3040 -0.6492
18505THY    HM249943   6.930   8.068   2.452  1.1679  0.1185  1.3486
18505THY    HM349944   6.907   7.967   2.300  2.3377 -0.7764  0.3292
18505THY    CA649945   6.745   7.823   2.484  0.9041  0.5718 -0.2022
18505THY    HA649946   6.688   7.869   2.404  2.5843 -0.2672  0.5427
18506THY      O49947   5.379   7.249   2.045  0.0028 -0.3101 -0.0006
18506THY     HO49948   5.397   7.243   1.950 -0.3404 -0.4671  1.2750
18506THY    CA149949   5.359   7.379   2.077 -1.3048  0.6052  0.5546
18506THY    CA249950   5.386   7.428   2.208 -0.2990  0.3495  0.6380
18506THY    CP149951   5.420   7.338   2.323 -0.4766  0.0999 -0.7225
18506THY    HP149952   5.426   7.233   2.291 -1.9954 -0.5243 -0.6467
18506THY    CP249953   5.304   7.339   2.430 -0.2614  0.1220 -0.2727
18506THY    HP249954   5.322   7.264   2.509 -2.1309  0.5169 -0.3413
18506THY    HP349955   5.212   7.330   2.373 -0.0184 -0.1395 -1.2396
18506THY    HP449956   5.299   7.440   2.473  0.9706  0.1579 -0.2020
18506THY    CP349957   5.561   7.359   2.385 -0.3660  0.2385 -0.9208
18506THY    HP549958   5.636   7.353   2.306  0.0970  0.6215 -0.2075
18506THY    HP649959   5.572   7.284   2.464  1.1044  1.0243  0.0747
18506THY    HP749960   5.574   7.456   2.434  0.2451 -0.3765 -0.6856
18506THY    CA349961   5.369   7.570   2.235  0.3960 -0.0718 -0.1937
18506THY    HA349962   5.368   7.605   2.338 -2.2601 -0.3798  0.8333
18506THY    CA449963   5.340   7.667   2.126  0.4809  0.0742  0.4422
18506THY    HA449964   5.319   7.773   2.135  0.3909  0.7014  0.3791
18506THY    CA549965   5.316   7.608   2.001  0.1728 -0.5358 -0.5515
18506THY    CM149966   5.280   7.697   1.884 -1.0611  0.0342  0.3926
18506THY    HM149967   5.224   7.789   1.901 -0.2099 -0.1166  0.9461
18506THY    HM249968   5.224   7.641   1.808 -0.6249  0.3366 -0.4764
18506THY    HM349969   5.373   7.734   1.839  0.8432  2.7534 -0.7544
18506THY    CA649970   5.325   7.468   1.977  0.3863 -0.1535 -0.5966
18506THY    HA649971   5.293   7.438   1.879 -2.7496 -0.1437  2.1261
18507THY      O49972   0.309   0.538   2.598 -0.3642  0.0443  0.5307
18507THY     HO49973   0.328   0.456   2.647 -2.6433  0.2300  0.0465
18507THY    CA149974   0.320   0.517   2.469  0.1863 -0.3144 -0.2669
18507THY    CA249975   0.300   0.619   2.375  0.0157 -0.5975 -0.0069
18507THY    CP149976   0.260   0.758   2.431 -0.2543  0.3316 -0.1242
18507THY    HP149977   0.212   0.760   2.530  1.5768  1.2431  0.2443
18507THY    CP249978   0.150   0.813   2.339 -0.3709 -0.2354  0.2846
18507THY    HP249979   0.113   0.909   2.376  0.1146  0.5828  0.1654
18507THY    HP349980   0.067   0.741   2.347  0.6640 -1.6744 -1.1337
18507THY    HP449981   0.175   0.825   2.233 -0.7061 -0.5036 -1.2021
18507THY    CP349982   0.377   0.863   2.426  0.8862  0.1809  0.4321
18507THY    HP549983   0.346   0.964   2.456  0.0223  1.6256 -0.2323
18507THY    HP649984   0.397   0.872   2.319  0.4132  0.1324  0.9790
18507THY    HP749985   0.471   0.828   2.471 -0.0997  1.8909 -0.1566
18507THY    CA349986   0.325   0.586   2.235 -0.7748 -0.2549  0.0504
18507THY    HA349987   0.321   0.666   2.162  4.0245 -0.6515  0.1912
18507THY    CA449988   0.366   0.460   2.191  0.4580  0.2424  0.3831
18507THY    HA449989   0.371   0.447   2.083 -3.6449 -0.0850 -0.0435
18507THY    CA549990   0.390   0.366   2.290  0.0352  0.2093 -0.4434
18507THY    CM149991   0.438   0.234   2.248  0.1750  0.5422 -0.0838
18507THY    HM149992   0.360   0.174   2.200  0.6211  0.2308 -0.4231
18507THY    HM249993   0.472   0.180   2.338  1.4561  0.2011  0.1115
18507THY    HM349994   0.512   0.234   2.167  0.7634  1.0525 -0.9951
18507THY    CA649995   0.362   0.393   2.427  0.1769  0.5892 -0.5958
18507THY    HA649996   0.376   0.310   2.496  1.7638  0.8482 -0.1392
18508THY      O49997   5.545   4.340   3.843 -0.1256 -0.1154  0.2574
18508THY     HO49998   5.585   4.413   3.894  1.6136 -0.2035 -0.5716
18508THY    CA149999   5.418   4.376   3.818 -1.2717 -0.0633  0.3096
18508THY    CA250000   5.318   4.282   3.785 -0.2875 -0.0451  0.0221
18508THY    CP150001   5.347   4.129   3.783 -0.7561 -0.4220  0.0422
18508THY    HP150002   5.454   4.104   3.777 -1.0782  1.1391 -1.8879
18508THY    CP250003   5.287   4.058   3.663 -0.4720  0.6647  0.4550
18508THY    HP250004   5.186   4.096   3.643 -1.3980  0.9843 -1.7252
18508THY    HP350005   5.281   3.949   3.672 -0.3942  0.9719  0.4746
18508THY    HP450006   5.354   4.063   3.576  1.0271  1.6760 -0.8643
18508THY    CP350007   5.292   4.068   3.913  0.1531 -0.3178  0.5056
18508THY    HP550008   5.182   4.073   3.910  0.0343  0.1482 -1.2181
18508THY    HP650009   5.336   4.122   3.998  0.5388  0.0621 -0.4003
18508THY    HP750010   5.322   3.964   3.930  0.0989 -3.0102 -0.0209
18508THY    CA350011   5.189   4.335   3.761  0.3500 -0.6266 -0.3575
18508THY    HA350012   5.102   4.274   3.736 -0.3756  2.3646 -0.6951
18508THY    CA450013   5.173   4.475   3.762 -0.8013 -0.3642 -0.6361
18508THY    HA450014   5.079   4.527   3.745  0.9966  0.0935  3.0841
18508THY    CA550015   5.273   4.569   3.789  0.2647 -0.5317  0.4383
18508THY    CM150016   5.254   4.721   3.788 -0.1221 -0.0431 -0.8639
18508THY    HM150017   5.303   4.764   3.876  1.2021 -1.0150 -0.3287
18508THY    HM250018   5.150   4.752   3.800  0.4294 -0.2479  1.2073
18508THY    HM350019   5.296   4.771   3.700 -0.6132 -1.5862 -3.0055
18508THY    CA650020   5.398   4.515   3.822 -0.0986  0.5794  0.0970
18508THY    HA650021   5.480   4.586   3.832 -2.1874 -0.0207  2.7847
18509THY      O50022   4.465   8.683   3.022  0.4250  1.3271 -0.1456
18509THY     HO50023   4.501   8.762   2.980 -2.4247  2.2374  1.8129
18509THY    CA150024   4.351   8.654   2.951 -0.5090  0.3201  0.2816
18509THY    CA250025   4.254   8.552   2.987 -1.1633 -0.2149 -0.3095
18509THY    CP150026   4.274   8.472   3.109  0.2119 -0.1134 -0.0927
18509THY    HP150027   4.340   8.530   3.176 -1.4878  2.6729 -1.1756
18509THY    CP250028   4.353   8.337   3.090  0.7050  0.2811 -0.4659
18509THY    HP250029   4.297   8.271   3.023 -1.2590  0.9687  0.4433
18509THY    HP350030   4.374   8.291   3.187  0.2825  1.5276  1.8092
18509THY    HP450031   4.443   8.361   3.031  0.6198  0.6198  0.7464
18509THY    CP350032   4.150   8.447   3.194 -0.3022 -0.2316 -0.2642
18509THY    HP550033   4.098   8.541   3.217  0.8480 -1.4508  0.7050
18509THY    HP650034   4.178   8.401   3.290 -1.8298  0.8058  0.8843
18509THY    HP750035   4.080   8.379   3.144  2.5360 -2.1276 -2.0095
18509THY    CA350036   4.142   8.541   2.910 -0.4148 -0.0564 -0.8412
18509THY    HA350037   4.063   8.473   2.940 -1.8954  0.7124  1.0984
18509THY    CA450038   4.115   8.617   2.797  0.4250  0.4383 -0.7757
18509THY    HA450039   4.029   8.598   2.733  0.6703 -0.0507 -0.2823
18509THY    CA550040   4.209   8.709   2.764  0.0420  0.8294  0.5661
18509THY    CM150041   4.192   8.793   2.638 -0.5026  0.1379 -0.1101
18509THY    HM150042   4.258   8.762   2.557 -1.3844  0.2151 -2.3178
18509THY    HM250043   4.218   8.899   2.653  3.1343 -1.7995 -0.5898
18509THY    HM350044   4.090   8.805   2.600 -0.2741 -0.3302  0.4147
18509THY    CA650045   4.326   8.728   2.837  0.2851  0.7326  0.9121
18509THY    HA650046   4.383   8.816   2.807  0.3064 -0.1004  0.6227
18510THY      O50047   5.666   7.917   6.770  0.2020 -0.3167 -0.1821
18510THY     HO50048   5.698   7.878   6.853  3.0811 -0.4185  1.6099
18510THY    CA150049   5.672   8.044   6.798 -1.4848  0.0493 -0.3653
18510THY    CA250050   5.705   8.135   6.699 -0.8360  0.2725  0.2157
18510THY    CP150051   5.710   8.090   6.545  0.0564  0.3611  0.3860
18510THY    HP150052   5.731   7.983   6.533 -1.4735  1.0655 -0.0163
18510THY    CP250053   5.831   8.155   6.468  0.1480  0.3153  0.3546
18510THY    HP250054   5.925   8.121   6.514  1.9719 -1.3310  2.7718
18510THY    HP350055   5.826   8.265   6.476 -0.5586 -2.2757  0.5702
18510THY    HP450056   5.827   8.129   6.362 -2.3119  0.8710 -1.8864
18510THY    CP350057   5.572   8.121   6.480 -0.4262 -0.4340 -0.1036
18510THY    HP550058   5.580   8.227   6.453  1.0984 -0.2825 -0.1615
18510THY    HP650059   5.493   8.104   6.554  1.1933  1.9287  1.8687
18510THY    HP750060   5.552   8.052   6.398  0.1072  1.3977 -2.5856
18510THY    CA350061   5.737   8.269   6.732 -0.1467  0.8617  0.1276
18510THY    HA350062   5.746   8.343   6.654  0.3247  0.7845 -0.0059
18510THY    CA450063   5.725   8.308   6.867 -0.2850 -0.3478  0.9113
18510THY    HA450064   5.747   8.412   6.891 -0.2913  1.9538  0.4346
18510THY    CA550065   5.704   8.213   6.966 -0.8366  0.6748 -0.1260
18510THY    CM150066   5.694   8.253   7.103 -0.1250 -0.1085  0.1761
18510THY    HM150067   5.735   8.173   7.165  0.2598 -0.8893 -0.2497
18510THY    HM250068   5.589   8.261   7.133  0.0145  0.2265  0.8584
18510THY    HM350069   5.746   8.346   7.132  2.6706  0.6031 -1.4769
18510THY    CA650070   5.681   8.083   6.932 -0.1307  0.3147  0.4851
18510THY    HA650071   5.666   8.000   7.002 -1.1786 -2.2851 -1.6616
18511THY      O50072   1.502   5.618   4.134 -0.1160  0.0584  0.6320
18511THY     HO50073   1.466   5.551   4.074  0.8504  0.6273 -0.4378
18511THY    CA150074   1.420   5.633   4.240 -0.2529  0.1224  0.0437
18511THY    CA250075   1.451   5.701   4.358 -0.5732  0.3256  0.4556
18511THY    CP150076   1.596   5.750   4.394  0.3748 -0.3064  0.0637
18511THY    HP150077   1.673   5.702   4.331  2.3332  2.4134 -0.6484
18511THY    CP250078   1.636   5.719   4.541  0.3021  0.4522  0.1162
18511THY    HP250079   1.745   5.732   4.548  0.7086 -4.4105  1.1567
18511THY    HP350080   1.620   5.615   4.571  2.0204  0.9775 -0.0424
18511THY    HP450081   1.606   5.797   4.613 -1.4244  0.3531 -0.4274
18511THY    CP350082   1.631   5.904   4.351 -0.2100 -0.0938 -0.0754
18511THY    HP550083   1.739   5.924   4.359 -0.4715  0.2694  1.2635
18511THY    HP650084   1.571   5.973   4.412  0.9286 -1.6127  2.3821
18511THY    HP750085   1.610   5.918   4.245  2.9006 -0.8292 -0.1424
18511THY    CA350086   1.350   5.714   4.457  0.6144  0.3226 -0.2724
18511THY    HA350087   1.381   5.769   4.545 -1.0303  1.1568 -0.6303
18511THY    CA450088   1.223   5.665   4.440 -0.2443 -1.6790 -1.5620
18511THY    HA450089   1.150   5.678   4.520  2.1223  0.4940 -0.5358
18511THY    CA550090   1.189   5.599   4.319 -0.4528 -0.1451 -0.5072
18511THY    CM150091   1.054   5.554   4.301  0.3360 -0.2175  0.0120
18511THY    HM150092   0.978   5.629   4.323 -0.6184 -1.9402 -0.3913
18511THY    HM250093   1.049   5.466   4.365 -0.9119 -0.0539  0.1873
18511THY    HM350094   1.038   5.516   4.199  0.3431 -0.8646  1.6551
18511THY    CA650095   1.291   5.588   4.224 -0.5119 -0.1004 -0.3638
18511THY    HA650096   1.259   5.542   4.131 -3.3336 -0.1022  1.3734
18512THY      O50097   8.466   3.962   5.532  0.2015  0.3152  0.1409
18512THY     HO50098   8.437   4.024   5.600 -0.1618  0.3305 -0.0475
18512THY    CA150099   8.362   3.937   5.452  0.3183 -0.9016 -0.7196
18512THY    CA250100   8.319   3.813   5.397 -0.4460  0.2897 -0.5505
18512THY    CP150101   8.396   3.682   5.438 -0.6147 -0.1975 -0.4282
18512THY    HP150102   8.504   3.697   5.450 -0.3306 -0.0318 -2.2998
18512THY    CP250103   8.394   3.573   5.333 -0.1660 -0.2579 -0.1219
18512THY    HP250104   8.481   3.510   5.355 -0.4249  1.2735  0.0016
18512THY    HP350105   8.403   3.611   5.231 -0.9741 -0.9539 -1.7245
18512THY    HP450106   8.315   3.498   5.340 -0.4757 -2.1872 -0.0211
18512THY    CP350107   8.352   3.621   5.570 -0.5857 -0.7753 -0.5239
18512THY    HP550108   8.415   3.541   5.610 -0.8565  1.3162  0.2206
18512THY    HP650109   8.251   3.579   5.559 -0.2148 -0.8590 -1.4135
18512THY    HP750110   8.349   3.690   5.655 -1.6900  0.0557 -1.5497
18512THY    CA350111   8.204   3.812   5.314 -0.3373  0.1504 -0.5351
18512THY    HA350112   8.169   3.717   5.275  0.3958  1.0242 -1.1834
18512THY    CA450113   8.141   3.937   5.279 -0.0523  0.1380 -0.3423
18512THY    HA450114   8.060   3.943   5.207  0.9170 -0.8465  2.4802
18512THY    CA550115   8.197   4.059   5.323  0.1418  0.0297 -0.0979
18512THY    CM150116   8.132   4.192   5.293 -0.3115 -0.3666 -0.1747
18512THY    HM150117   8.027   4.192   5.326 -0.8422 -2.0033 -0.0886
18512THY    HM250118   8.134   4.209   5.185  1.7642 -0.4933 -0.9715
18512THY    HM350119   8.188   4.274   5.339 -1.0059  0.0312  0.0871
18512THY    CA650120   8.308   4.050   5.408 -0.9949  0.2589 -0.3497
18512THY    HA650121   8.352   4.145   5.439 -0.5186 -0.8124 -0.2014
18513THY      O50122   4.885   0.971   7.296  0.3910 -0.9255  1.1440
18513THY     HO50123   4.923   0.887   7.268 -0.3505 -1.1178  0.8627
18513THY    CA150124   4.970   1.019   7.390  0.1246 -0.2982 -0.3843
18513THY    CA250125   4.948   1.148   7.438  0.7079 -0.6413  0.1232
18513THY    CP150126   4.844   1.248   7.369  0.0207  0.2011  0.2631
18513THY    HP150127   4.775   1.190   7.307 -1.2503  1.7153  0.0950
18513THY    CP250128   4.923   1.350   7.282  0.4945 -0.3087  0.1004
18513THY    HP250129   5.007   1.312   7.223  1.4081  0.9573  0.0866
18513THY    HP350130   4.952   1.438   7.340 -1.0271 -0.2622  0.5921
18513THY    HP450131   4.857   1.383   7.201  0.5232 -0.0541  0.7907
18513THY    CP350132   4.761   1.328   7.472 -0.2834 -0.5856 -0.8931
18513THY    HP550133   4.736   1.420   7.418 -0.4942 -3.2885 -2.4535
18513THY    HP650134   4.813   1.355   7.566  1.5029 -2.0202  0.9968
18513THY    HP750135   4.664   1.283   7.496 -1.6370  1.1836  2.5882
18513THY    CA350136   5.046   1.199   7.527 -0.3554 -0.3899  0.0424
18513THY    HA350137   5.028   1.297   7.572 -0.6134  2.7074 -1.3050
18513THY    CA450138   5.148   1.115   7.577  0.5567 -0.1674 -0.7295
18513THY    HA450139   5.215   1.154   7.652  0.0784 -0.6029  1.0336
18513THY    CA550140   5.160   0.986   7.523 -0.0609  0.3526  0.1300
18513THY    CM150141   5.278   0.909   7.571 -0.6779 -0.1827 -0.1646
18513THY    HM150142   5.255   0.870   7.671 -0.3699 -0.0794 -0.0870
18513THY    HM250143   5.375   0.959   7.578 -0.0441 -2.8258 -0.8537
18513THY    HM350144   5.288   0.814   7.517 -1.8233 -0.6646 -0.0241
18513THY    CA650145   5.069   0.938   7.432 -0.1071  0.0388  0.0851
18513THY    HA650146   5.081   0.838   7.392 -0.8789  2.4195 -1.0323
18514THY      O50147   2.514   3.963   4.860 -0.5260 -0.4378 -0.4291
18514THY     HO50148   2.502   3.995   4.951 -1.3883 -0.5491 -0.4108
18514THY    CA150149   2.501   4.070   4.775 -0.3755  0.2295 -0.0008
18514THY    CA250150   2.533   4.045   4.640 -0.5529  0.4167 -0.1259
18514THY    CP150151   2.557   3.902   4.588 -0.1819  0.0885  0.2528
18514THY    HP150152   2.518   3.835   4.666  3.0224  2.1305  0.5311
18514THY    CP250153   2.703   3.892   4.556 -0.3550 -0.7140 -0.0988
18514THY    HP250154   2.727   3.787   4.533  1.2298  2.3993 -0.5457
18514THY    HP350155   2.767   3.915   4.642  1.1716 -0.7371 -3.6280
18514THY    HP450156   2.730   3.962   4.477  0.6889  1.2627  1.8620
18514THY    CP350157   2.472   3.873   4.455 -0.1776 -0.5842  0.0864
18514THY    HP550158   2.466   3.765   4.433 -1.3441  0.3092 -0.0484
18514THY    HP650159   2.497   3.934   4.368  2.5298  1.3494  1.9663
18514THY    HP750160   2.368   3.894   4.480 -0.3266 -0.6049 -0.6037
18514THY    CA350161   2.529   4.151   4.552 -0.3025  0.5557  0.3439
18514THY    HA350162   2.536   4.141   4.444 -0.5088  0.7057 -1.7862
18514THY    CA450163   2.494   4.281   4.600  0.3644  0.2120  0.1627
18514THY    HA450164   2.481   4.372   4.542 -0.0303 -0.7916 -0.5209
18514THY    CA550165   2.484   4.303   4.740 -0.2493 -0.3656  0.4176
18514THY    CM150166   2.444   4.444   4.789  0.5339  0.1773 -0.3353
18514THY    HM150167   2.500   4.522   4.736 -0.4292 -0.3475  0.0109
18514THY    HM250168   2.466   4.454   4.896 -0.1790  0.4020 -1.0930
18514THY    HM350169   2.341   4.473   4.768  1.0939 -1.5224  0.5695
18514THY    CA650170   2.485   4.193   4.830  0.5196 -0.4837 -1.1037
18514THY    HA650171   2.462   4.208   4.935 -0.4907 -0.0281 -4.8158
18515THY      O50172   0.469   5.982   5.819 -0.2745  0.0779 -0.5958
18515THY     HO50173   0.449   5.964   5.912 -0.2113  0.6810  1.9692
18515THY    CA150174   0.388   6.079   5.776  0.7080 -0.4458 -0.1274
18515THY    CA250175   0.371   6.104   5.642  0.1495  0.3041 -0.5377
18515THY    CP150176   0.440   6.017   5.534  0.1441 -0.5943 -0.0392
18515THY    HP150177   0.536   5.986   5.578  0.1403 -0.0801  0.6733
18515THY    CP250178   0.465   6.089   5.403  0.1993 -0.2346  0.0346
18515THY    HP250179   0.527   6.178   5.422  0.2628  2.9935 -0.5775
18515THY    HP350180   0.372   6.116   5.352 -0.9573  2.3235  1.2082
18515THY    HP450181   0.525   6.034   5.330 -1.7287 -0.8735 -1.3181
18515THY    CP350182   0.357   5.897   5.497 -0.0697  0.6335  0.8612
18515THY    HP550183   0.264   5.935   5.453  1.1649 -0.3475  2.8841
18515THY    HP650184   0.331   5.850   5.593 -0.9143  0.2941  0.6098
18515THY    HP750185   0.396   5.822   5.427 -2.5868 -1.3332  1.2733
18515THY    CA350186   0.281   6.205   5.604 -0.1677 -0.1013 -0.6278
18515THY    HA350187   0.269   6.222   5.497  1.9044 -0.6281 -2.0263
18515THY    CA450188   0.217   6.285   5.709  0.2676  0.1032  0.6845
18515THY    HA450189   0.135   6.352   5.682 -1.4997 -1.9325 -2.0407
18515THY    CA550190   0.234   6.245   5.841  1.1368 -0.0966 -0.5128
18515THY    CM150191   0.149   6.304   5.949 -0.1778  0.1659 -0.5589
18515THY    HM150192   0.069   6.372   5.918  2.1248  2.2019  3.5005
18515THY    HM250193   0.209   6.363   6.020  0.1008 -0.4654 -0.0638
18515THY    HM350194   0.097   6.221   5.998  0.1681 -0.4549 -1.1535
18515THY    CA650195   0.318   6.141   5.878  0.2485  0.4381 -0.5604
18515THY    HA650196   0.333   6.120   5.984  2.7129 -0.0204 -1.3761
18516THY      O50197   0.491   5.885   2.641 -0.6280 -0.3032  0.5412
18516THY     HO50198   0.478   5.926   2.554 -0.3944  0.2469  1.8505
18516THY    CA150199   0.605   5.937   2.689  0.3961 -0.1435 -0.4297
18516THY    CA250200   0.681   5.881   2.796  0.0472  0.1659 -0.2147
18516THY    CP150201   0.653   5.746   2.858  0.0091  0.3239 -0.4375
18516THY    HP150202   0.574   5.694   2.804  0.4000 -0.7646  0.0790
18516THY    CP250203   0.609   5.765   3.008 -0.1222  0.8687 -0.3777
18516THY    HP250204   0.660   5.856   3.042 -2.1329  1.1497  0.7038
18516THY    HP350205   0.639   5.679   3.069  2.8717 -0.0593 -0.0806
18516THY    HP450206   0.504   5.796   3.018  0.3344  0.1783  1.5288
18516THY    CP350207   0.777   5.662   2.846  0.1837  0.4684 -0.0285
18516THY    HP550208   0.751   5.562   2.884 -0.8781  1.8031  0.7234
18516THY    HP650209   0.862   5.704   2.900  0.3335  0.0276  0.2441
18516THY    HP750210   0.808   5.636   2.743 -0.0939  0.1489  0.8808
18516THY    CA350211   0.785   5.957   2.848 -0.2246  0.0368  0.1875
18516THY    HA350212   0.838   5.912   2.931  1.5618 -1.1442 -0.0008
18516THY    CA450213   0.810   6.086   2.796  0.7212 -0.2152  0.0665
18516THY    HA450214   0.888   6.150   2.836 -0.2625 -0.0510  1.2217
18516THY    CA550215   0.745   6.141   2.681  0.0824  0.1461 -0.0046
18516THY    CM150216   0.779   6.268   2.618 -0.2912 -0.2827  0.7187
18516THY    HM150217   0.755   6.348   2.688 -3.6443  1.8563 -1.9056
18516THY    HM250218   0.725   6.287   2.524 -1.6961  0.6114  1.2771
18516THY    HM350219   0.885   6.269   2.589  0.6943  3.0150  1.6792
18516THY    CA650220   0.634   6.064   2.637  0.6580  0.1842  0.1431
18516THY    HA650221   0.571   6.094   2.554 -0.9978  1.9099  1.6674
18517THY      O50222   2.027   3.564   3.994 -0.4341 -0.0731  0.2812
18517THY     HO50223   2.031   3.477   3.951  1.0962  0.0100  0.2764
18517THY    CA150224   2.153   3.598   4.031  0.1801  0.8913  0.1449
18517THY    CA250225   2.183   3.682   4.141  0.0958 -0.0937 -0.4959
18517THY    CP150226   2.076   3.728   4.238 -0.2897  0.2030  0.1765
18517THY    HP150227   1.979   3.679   4.226 -1.0293  2.4251  0.9824
18517THY    CP250228   2.060   3.881   4.239 -0.2668 -0.3882  0.9231
18517THY    HP250229   1.966   3.904   4.290 -0.7467  0.3916 -2.3619
18517THY    HP350230   2.039   3.913   4.136  0.6033 -0.5055  1.1418
18517THY    HP450231   2.151   3.940   4.256  0.3851  0.9012 -0.3737
18517THY    CP350232   2.115   3.686   4.387  0.2843  0.2148  0.2019
18517THY    HP550233   2.202   3.736   4.432 -1.1725  1.6535  1.5710
18517THY    HP650234   2.131   3.579   4.398 -0.8983 -0.3626 -0.0429
18517THY    HP750235   2.032   3.719   4.449 -1.1859 -1.0536 -0.9738
18517THY    CA350236   2.316   3.728   4.151  0.2121  0.5891 -0.0777
18517THY    HA350237   2.339   3.794   4.235  1.2528  1.4060 -1.4171
18517THY    CA450238   2.413   3.686   4.063 -0.1785 -0.7002  0.1175
18517THY    HA450239   2.512   3.729   4.076 -0.7866  0.0451  1.3683
18517THY    CA550240   2.381   3.595   3.968 -0.1075  0.6049 -0.0518
18517THY    CM150241   2.487   3.547   3.870 -0.0768  0.7845 -0.1256
18517THY    HM150242   2.588   3.573   3.905  0.6672 -0.2227 -1.5012
18517THY    HM250243   2.473   3.579   3.767 -0.0310  0.2422 -1.7737
18517THY    HM350244   2.488   3.437   3.874 -1.2802  1.9456 -0.1205
18517THY    CA650245   2.251   3.554   3.948 -0.3509  0.1425 -0.2274
18517THY    HA650246   2.223   3.482   3.871 -1.7262  0.2882  0.1205
18518THY      O50247   5.598   5.780   5.928  0.7008 -0.2278 -0.0512
18518THY     HO50248   5.683   5.816   5.898  0.2413 -0.7425  0.6503
18518THY    CA150249   5.617   5.653   5.895 -0.2740 -0.5641  0.4538
18518THY    CA250250   5.516   5.557   5.891  0.1517  0.6101  0.6182
18518THY    CP150251   5.370   5.607   5.885 -0.2562  0.4256 -0.1880
18518THY    HP150252   5.363   5.702   5.939  1.5536 -0.8176  0.7154
18518THY    CP250253   5.269   5.515   5.966 -0.1188 -0.2303  0.5581
18518THY    HP250254   5.249   5.417   5.921  2.0698  0.1081 -0.1042
18518THY    HP350255   5.172   5.565   5.981 -0.5428  3.3601 -1.1035
18518THY    HP450256   5.303   5.491   6.067 -1.0801  0.3005  1.3271
18518THY    CP350257   5.317   5.625   5.740 -0.0034 -0.4265  0.2530
18518THY    HP550258   5.363   5.704   5.681 -1.3178 -3.8318 -1.2983
18518THY    HP650259   5.209   5.639   5.729  0.0989 -1.5369  0.1914
18518THY    HP750260   5.331   5.534   5.680 -1.2446  1.8134 -1.5376
18518THY    CA350261   5.553   5.420   5.876 -0.7798 -0.2547  0.1825
18518THY    HA350262   5.476   5.344   5.862 -1.0020  2.2659 -0.1325
18518THY    CA450263   5.694   5.381   5.856  0.8316  0.2217 -0.4097
18518THY    HA450264   5.728   5.278   5.853  1.7925 -0.2823 -0.0950
18518THY    CA550265   5.791   5.487   5.852 -0.4418 -0.5491 -0.1775
18518THY    CM150266   5.936   5.464   5.822 -0.9921  0.4105 -0.0095
18518THY    HM150267   6.005   5.534   5.871  0.2446  0.8177 -1.4574
18518THY    HM250268   5.957   5.482   5.716 -2.2100  0.4557  1.9983
18518THY    HM350269   5.968   5.361   5.839  0.4638 -0.3536  0.2976
18518THY    CA650270   5.749   5.621   5.863 -0.3863 -0.4458  0.2717
18518THY    HA650271   5.819   5.703   5.856 -1.3857  1.9047  1.4487
18519THY      O50272   9.032   6.055   2.868  0.3744  0.2077 -0.6855
18519THY     HO50273   9.102   6.117   2.895 -2.3890 -0.0853  2.9032
18519THY    CA150274   8.985   6.110   2.757 -0.1163 -0.7569  0.6510
18519THY    CA250275   8.872   6.058   2.695  0.3986 -0.4713 -0.2565
18519THY    CP150276   8.810   5.930   2.756  0.2238  0.1010 -0.5053
18519THY    HP150277   8.826   5.929   2.865  1.5207 -0.0267  1.4551
18519THY    CP250278   8.870   5.806   2.692 -0.1310  0.5006  0.2824
18519THY    HP250279   8.979   5.805   2.680 -0.2756 -3.3759 -3.9771
18519THY    HP350280   8.831   5.786   2.591  1.1682  0.3657 -1.7482
18519THY    HP450281   8.848   5.714   2.748 -1.2082 -2.4155 -1.3783
18519THY    CP350282   8.658   5.917   2.740  0.0043  0.3139 -0.7873
18519THY    HP550283   8.637   5.917   2.632  0.9292  0.1205 -0.2731
18519THY    HP650284   8.598   5.990   2.796  1.7217  1.4138 -0.1580
18519THY    HP750285   8.626   5.816   2.770  2.4277 -0.1292 -1.7638
18519THY    CA350286   8.837   6.105   2.567  0.0944 -0.1560 -0.4662
18519THY    HA350287   8.756   6.051   2.517 -0.0243 -0.5712  0.0871
18519THY    CA450288   8.905   6.210   2.510 -0.7085 -0.0808 -0.4104
18519THY    HA450289   8.882   6.258   2.415 -0.1214 -0.2759 -0.5026
18519THY    CA550290   9.013   6.266   2.579 -0.5606  0.9216 -0.1905
18519THY    CM150291   9.102   6.368   2.518 -0.3040 -0.5007 -0.4299
18519THY    HM150292   9.048   6.461   2.501  1.7143  0.5618  1.0026
18519THY    HM250293   9.147   6.329   2.426  1.7259  1.0031 -1.8446
18519THY    HM350294   9.189   6.391   2.580  0.2208  0.2132 -3.7653
18519THY    CA650295   9.046   6.217   2.701  0.0931 -0.3253 -0.3690
18519THY    HA650296   9.135   6.257   2.748 -1.6928  1.7770  1.4702
18520THY      O50297   7.577   8.316   6.688  0.2153 -0.7271  0.5191
18520THY     HO50298   7.498   8.372   6.701 -0.0089 -0.7160  0.2023
18520THY    CA150299   7.664   8.366   6.784  0.7221 -0.3249 -0.3105
18520THY    CA250300   7.772   8.292   6.832 -0.3172 -1.0078 -0.8897
18520THY    CP150301   7.798   8.153   6.772  0.4254 -0.3316 -0.4081
18520THY    HP150302   7.761   8.133   6.671  1.3526 -0.6578 -0.5088
18520THY    CP250303   7.727   8.057   6.864 -1.1873 -0.2810 -0.6795
18520THY    HP250304   7.724   7.952   6.831 -0.5607 -1.9990 -0.1883
18520THY    HP350305   7.622   8.088   6.875 -1.3631  0.8725 -1.5995
18520THY    HP450306   7.766   8.057   6.966  0.9328 -1.0474 -1.4808
18520THY    CP350307   7.947   8.111   6.764  0.6062 -0.2854 -0.8097
18520THY    HP550308   8.001   8.170   6.689  2.2795  0.8130 -0.8845
18520THY    HP650309   7.952   8.008   6.728  0.7680  0.8395 -1.2100
18520THY    HP750310   8.000   8.116   6.859  0.6452 -0.2834 -1.2664
18520THY    CA350311   7.843   8.346   6.934 -0.4845 -0.2817  0.5645
18520THY    HA350312   7.920   8.289   6.984 -1.9617  0.7833 -0.5958
18520THY    CA450313   7.814   8.469   6.986  0.3990 -0.6627 -0.0374
18520THY    HA450314   7.871   8.506   7.071  0.9761 -0.7700 -0.6721
18520THY    CA550315   7.705   8.545   6.936 -0.2167  0.0307 -0.1529
18520THY    CM150316   7.674   8.676   6.989 -0.8866 -0.3164  0.3051
18520THY    HM150317   7.743   8.701   7.071 -0.3813 -0.1658 -1.4907
18520THY    HM250318   7.580   8.680   7.045 -1.0982 -0.5907 -0.6766
18520THY    HM350319   7.659   8.750   6.910 -2.8400 -1.6762 -1.4328
18520THY    CA650320   7.637   8.491   6.832 -0.4541  0.7484  0.3366
18520THY    HA650321   7.554   8.552   6.796 -0.5639  1.2860  0.5034
18521THY      O50322   5.787   3.856   2.717  0.3630  0.4374  1.0958
18521THY     HO50323   5.866   3.911   2.733  1.4863 -0.0869 -0.3052
18521THY    CA150324   5.802   3.767   2.610 -0.0571 -0.3564  0.3669
18521THY    CA250325   5.705   3.664   2.587  0.2401 -0.3511 -0.3557
18521THY    CP150326   5.569   3.656   2.660  0.1120  0.1834  0.2507
18521THY    HP150327   5.558   3.732   2.738 -0.3313  0.1824  0.1926
18521THY    CP250328   5.566   3.523   2.743 -0.0822 -0.3869  0.1728
18521THY    HP250329   5.644   3.508   2.819  0.1126 -0.5448  0.3694
18521THY    HP350330   5.571   3.438   2.673  0.3789  0.1846 -0.2759
18521THY    HP450331   5.474   3.522   2.802  0.0745 -0.1396  0.3197
18521THY    CP350332   5.461   3.672   2.547 -0.2930 -1.3525 -0.8650
18521THY    HP550333   5.364   3.659   2.596  0.3756  0.5147  0.6338
18521THY    HP650334   5.476   3.597   2.468  1.5375 -2.4276  0.5323
18521THY    HP750335   5.466   3.770   2.496  0.5170  0.6308  0.1837
18521THY    CA350336   5.737   3.569   2.490 -0.2041  0.0092 -0.2925
18521THY    HA350337   5.660   3.500   2.458 -1.7940  2.1800  0.3423
18521THY    CA450338   5.847   3.581   2.412 -0.2949  0.1827  0.2320
18521THY    HA450339   5.864   3.515   2.328  0.7633 -0.7359  1.5944
18521THY    CA550340   5.938   3.680   2.438  0.0513 -0.0236  0.3174
18521THY    CM150341   6.059   3.696   2.347  0.0308 -0.7532 -0.2434
18521THY    HM150342   6.142   3.733   2.408  0.2553  0.6693 -2.8459
18521THY    HM250343   6.043   3.772   2.269 -0.3219  1.3355  1.9596
18521THY    HM350344   6.086   3.603   2.296 -1.9818 -2.5527  0.0974
18521THY    CA650345   5.919   3.770   2.541 -0.1334  0.9613  0.6916
18521THY    HA650346   5.988   3.851   2.561  0.7232 -0.1270  0.2538
18522THY      O50347   4.001   3.420   2.227 -0.2093 -0.2666  0.0506
18522THY     HO50348   4.017   3.329   2.255  2.2863 -2.3475 -0.3042
18522THY    CA150349   4.084   3.498   2.306  0.9903 -0.2632  0.4067
18522THY    CA250350   4.073   3.640   2.302 -0.7978  0.6092 -0.0386
18522THY    CP150351   3.991   3.702   2.186 -0.7396  0.3481 -0.5100
18522THY    HP150352   4.008   3.641   2.097  0.9250  0.4879 -0.3010
18522THY    CP250353   4.043   3.845   2.146  0.3340  0.0738  0.4404
18522THY    HP250354   3.987   3.863   2.054 -0.8302  0.3568 -1.4989
18522THY    HP350355   4.149   3.845   2.117  0.3182  0.0162  0.4944
18522THY    HP450356   4.027   3.918   2.226  0.3373  1.3168 -0.8761
18522THY    CP350357   3.840   3.716   2.217 -1.0067  0.6426 -0.7659
18522THY    HP550358   3.784   3.755   2.131  0.3154  0.8578  1.8191
18522THY    HP650359   3.839   3.778   2.307  0.3905 -0.3262  0.7627
18522THY    HP750360   3.814   3.614   2.248  3.0497  1.9757 -1.6004
18522THY    CA350361   4.137   3.709   2.407  0.3134  0.1902  0.4943
18522THY    HA350362   4.131   3.817   2.415 -0.9627  0.7988  0.3950
18522THY    CA450363   4.208   3.635   2.502 -0.2145 -0.0906 -0.2140
18522THY    HA450364   4.261   3.692   2.578 -1.0112  1.3753 -1.3931
18522THY    CA550365   4.224   3.498   2.497  0.2746 -0.6582  0.5393
18522THY    CM150366   4.295   3.418   2.596 -0.0570  0.2929 -0.5322
18522THY    HM150367   4.388   3.472   2.618  1.1829 -1.6946 -1.7498
18522THY    HM250368   4.320   3.316   2.564 -2.2193  0.2248 -1.1022
18522THY    HM350369   4.241   3.424   2.691  1.2841  1.0025  2.3319
18522THY    CA650370   4.156   3.424   2.403 -0.8755  0.2049 -0.4554
18522THY    HA650371   4.165   3.315   2.401 -1.4097  0.4590 -0.5078
18523THY      O50372   4.577   5.351   3.202  0.9673 -0.2508  0.0060
18523THY     HO50373   4.642   5.355   3.274  1.8900 -0.9899 -1.0465
18523THY    CA150374   4.636   5.402   3.091  0.3930 -0.2401  0.6283
18523THY    CA250375   4.563   5.402   2.966 -0.5620 -0.7119 -0.0168
18523THY    CP150376   4.418   5.355   2.962  0.4718  0.2690  0.0337
18523THY    HP150377   4.383   5.300   3.050 -1.3424 -0.5115 -0.1429
18523THY    CP250378   4.415   5.243   2.850  0.3219 -0.1681 -0.3598
18523THY    HP250379   4.387   5.296   2.758 -1.1466  0.3277 -0.2405
18523THY    HP350380   4.327   5.181   2.868  0.1501 -1.5949 -0.5708
18523THY    HP450381   4.503   5.180   2.833  0.4036 -1.2707  0.0245
18523THY    CP350382   4.314   5.470   2.945 -0.2544  0.0067 -0.3311
18523THY    HP550383   4.328   5.551   3.018  1.0110  0.2049 -0.7071
18523THY    HP650384   4.206   5.453   2.947 -0.6824  2.3465  1.9881
18523THY    HP750385   4.332   5.525   2.851 -3.9846  0.0752  1.3465
18523THY    CA350386   4.631   5.440   2.854 -0.1164  0.6272 -0.2411
18523THY    HA350387   4.589   5.438   2.754  0.2092  0.4818 -0.0464
18523THY    CA450388   4.763   5.481   2.861 -0.8889 -0.1751  0.2376
18523THY    HA450389   4.811   5.528   2.776 -1.2351 -1.3337 -1.4141
18523THY    CA550390   4.826   5.479   2.979 -0.6027  0.1274  0.1742
18523THY    CM150391   4.971   5.515   2.974  0.4036  0.4701  0.7246
18523THY    HM150392   4.999   5.589   2.899 -1.4444 -1.7591 -0.7189
18523THY    HM250393   5.028   5.422   2.958  0.2667  0.6134  0.6146
18523THY    HM350394   5.008   5.554   3.070 -0.1655  1.2044 -0.4672
18523THY    CA650395   4.766   5.441   3.099  0.4778 -0.1211 -0.3640
18523THY    HA650396   4.823   5.425   3.190  0.8906 -0.2693  0.2451
18524THY      O50397   8.804   0.647   6.976 -0.9866  0.1280 -0.1550
18524THY     HO50398   8.727   0.692   7.015 -0.8207  2.3566 -1.6264
18524THY    CA150399   8.755   0.545   6.898 -0.0464  0.5524 -0.6673
18524THY    CA250400   8.790   0.539   6.762 -0.2271 -0.4217  0.4431
18524THY    CP150401   8.907   0.629   6.708  0.5188 -0.0179  0.0704
18524THY    HP150402   8.930   0.712   6.775 -1.8635  1.5133 -0.3968
18524THY    CP250403   8.859   0.693   6.574 -0.0276 -0.0518  0.0260
18524THY    HP250404   8.925   0.780   6.562  0.7445  2.4613 -0.1307
18524THY    HP350405   8.758   0.734   6.581  0.6112  0.0320  1.6508
18524THY    HP450406   8.868   0.616   6.496  0.8013  0.9146 -0.8957
18524THY    CP350407   9.045   0.556   6.690  0.6819  0.1556  0.6084
18524THY    HP550408   9.085   0.498   6.773  0.7504 -1.3214 -1.5718
18524THY    HP650409   9.117   0.637   6.671 -0.1550 -1.4526  1.0174
18524THY    HP750410   9.022   0.487   6.608 -0.7675  2.1970 -1.4313
18524THY    CA350411   8.724   0.440   6.679 -0.0448  0.0946  0.0993
18524THY    HA350412   8.751   0.418   6.576  0.5411  0.5080 -1.2359
18524THY    CA450413   8.618   0.360   6.733 -0.1850 -0.0380 -0.5187
18524THY    HA450414   8.573   0.277   6.680 -0.8700  0.4976 -0.4998
18524THY    CA550415   8.575   0.391   6.867  0.2990  0.4510 -0.3174
18524THY    CM150416   8.461   0.307   6.923  0.2284 -0.0539  0.8127
18524THY    HM150417   8.446   0.314   7.031 -1.7289 -0.1387 -0.8981
18524THY    HM250418   8.480   0.203   6.891  0.9399  2.0735  0.2439
18524THY    HM350419   8.372   0.336   6.866 -0.8387  0.7125 -0.7969
18524THY    CA650420   8.650   0.472   6.946  0.6005 -0.6204 -0.3311
18524THY    HA650421   8.615   0.485   7.048 -0.6758 -1.2577  1.7204
18525THY      O50422   5.788   2.261   6.452 -0.1129  0.1675  0.0621
18525THY     HO50423   5.760   2.177   6.492  1.4530 -0.4863 -0.8000
18525THY    CA150424   5.780   2.351   6.549 -0.4877 -0.4293  0.3568
18525THY    CA250425   5.810   2.494   6.530 -0.6050  0.2043  0.7567
18525THY    CP150426   5.858   2.542   6.388  0.8764 -0.0551  0.3095
18525THY    HP150427   5.887   2.451   6.335  0.9035  0.7240 -0.1388
18525THY    CP250428   5.962   2.651   6.388 -0.2970  0.9122  0.1240
18525THY    HP250429   5.983   2.660   6.281 -1.3662  0.6262 -0.5120
18525THY    HP350430   6.049   2.612   6.441 -0.3662  2.8513  2.4208
18525THY    HP450431   5.930   2.751   6.417  0.4971 -2.9638  1.6713
18525THY    CP350432   5.733   2.602   6.320 -0.1700  0.6770 -0.2755
18525THY    HP550433   5.707   2.699   6.364  0.8541 -1.1479  0.8963
18525THY    HP650434   5.655   2.525   6.319 -0.0381  1.8826 -0.4324
18525THY    HP750435   5.754   2.630   6.216  1.7257  0.0454 -3.4944
18525THY    CA350436   5.801   2.588   6.643  0.3075  0.1639  1.0595
18525THY    HA350437   5.805   2.696   6.634  0.3407  3.4519  1.4318
18525THY    CA450438   5.770   2.537   6.769 -0.3209 -0.1545  0.6171
18525THY    HA450439   5.765   2.601   6.857  2.9155  0.9807 -0.4775
18525THY    CA550440   5.762   2.398   6.785  0.7821  0.0861 -0.1656
18525THY    CM150441   5.726   2.345   6.923  0.2109  0.6054 -0.3077
18525THY    HM150442   5.762   2.243   6.939 -1.4780  1.2731 -0.8251
18525THY    HM250443   5.620   2.355   6.947  0.1577  0.2041  0.1190
18525THY    HM350444   5.777   2.405   6.999  1.1050  0.3503 -0.7278
18525THY    CA650445   5.760   2.307   6.678 -0.2113  0.1590 -0.1656
18525THY    HA650446   5.742   2.202   6.700  0.9759 -0.6002 -0.5384
18526THY      O50447   5.685   7.718   4.375  0.2659  0.0880 -0.2807
18526THY     HO50448   5.739   7.754   4.448 -1.6709  0.9195  1.1144
18526THY    CA150449   5.574   7.703   4.444  0.0460  0.1710  0.3911
18526THY    CA250450   5.452   7.644   4.394  0.1743 -0.7053  0.1047
18526THY    CP150451   5.457   7.588   4.254  0.7314  0.3190  0.1731
18526THY    HP150452   5.520   7.654   4.193  0.5991  0.6578  0.6220
18526THY    CP250453   5.318   7.592   4.183 -0.1602 -0.2395 -1.0697
18526THY    HP250454   5.277   7.693   4.184 -0.0735  0.4152 -1.0385
18526THY    HP350455   5.242   7.523   4.220 -0.2309 -0.0229 -0.8753
18526THY    HP450456   5.338   7.561   4.079 -2.4453 -1.6409  1.7077
18526THY    CP350457   5.510   7.446   4.248  0.5811 -0.4320  0.1781
18526THY    HP550458   5.458   7.394   4.330  1.9923  0.2113 -0.2712
18526THY    HP650459   5.616   7.432   4.275  0.7614 -1.4059 -0.4043
18526THY    HP750460   5.497   7.391   4.154  1.2887  0.4139 -1.5176
18526THY    CA350461   5.343   7.626   4.484 -0.9902  0.9671  0.3060
18526THY    HA350462   5.259   7.568   4.446  0.4508  0.6585 -1.6907
18526THY    CA450463   5.351   7.675   4.618  0.1162 -0.4414 -0.4766
18526THY    HA450464   5.269   7.663   4.688  0.3795 -0.0687 -0.1451
18526THY    CA550465   5.473   7.736   4.662  0.0343 -0.2425 -0.4145
18526THY    CM150466   5.477   7.786   4.803 -0.3667 -0.3814  0.5552
18526THY    HM150467   5.440   7.888   4.818  0.2113 -0.4439  0.7787
18526THY    HM250468   5.579   7.788   4.843 -0.2375 -0.7255  1.2629
18526THY    HM350469   5.428   7.716   4.872 -0.5009  0.3882  1.3870
18526THY    CA650470   5.581   7.746   4.577  0.6651  0.1107 -0.9201
18526THY    HA650471   5.665   7.803   4.617  0.5096 -1.7646  0.7111
18527THY      O50472   0.341   0.592   3.023 -0.2873 -0.3227 -0.2660
18527THY     HO50473   0.289   0.631   2.950  0.4408 -0.2319  0.9174
18527THY    CA150474   0.462   0.560   2.977  0.2298  0.0363 -0.6271
18527THY    CA250475   0.557   0.491   3.059  0.3126 -0.6686 -0.0290
18527THY    CP150476   0.510   0.429   3.191  0.0147  0.2178 -0.5148
18527THY    HP150477   0.424   0.482   3.235  0.6305  1.0949 -0.2046
18527THY    CP250478   0.607   0.441   3.313  0.3071 -0.6651 -0.1703
18527THY    HP250479   0.670   0.352   3.322  2.0253  0.2061  1.0471
18527THY    HP350480   0.550   0.456   3.405  2.6264  0.6795  1.0431
18527THY    HP450481   0.675   0.528   3.309  2.4002  0.0746 -1.6923
18527THY    CP350482   0.480   0.283   3.177  0.8312 -0.2612 -0.2090
18527THY    HP550483   0.395   0.257   3.113 -0.1347  1.0303 -0.3549
18527THY    HP650484   0.465   0.247   3.280  0.1299  0.3464  1.6755
18527THY    HP750485   0.571   0.244   3.131 -0.1567 -2.2102 -0.3373
18527THY    CA350486   0.690   0.487   3.016 -0.3798 -0.4064  0.6874
18527THY    HA350487   0.764   0.457   3.090  0.2222 -0.4423  2.0414
18527THY    CA450488   0.724   0.524   2.882 -0.1003  0.5588 -0.1527
18527THY    HA450489   0.828   0.509   2.852 -0.6024 -0.5207 -1.7280
18527THY    CA550490   0.626   0.589   2.803 -0.2728 -0.7144 -0.0346
18527THY    CM150491   0.652   0.640   2.663  0.4188 -0.2100 -0.7233
18527THY    HM150492   0.664   0.749   2.667  1.3421  3.4415 -0.8432
18527THY    HM250493   0.561   0.634   2.601 -0.1013  0.4122  0.3835
18527THY    HM350494   0.737   0.586   2.622  2.0013  3.7057 -1.4929
18527THY    CA650495   0.497   0.606   2.852  0.6397  0.2123  0.0776
18527THY    HA650496   0.424   0.659   2.790  1.6122 -0.5757  0.5298
18528THY      O50497   6.614   6.122   4.404 -0.7448  0.4834 -0.3826
18528THY     HO50498   6.603   6.097   4.497  1.4566  0.6011 -1.1221
18528THY    CA150499   6.495   6.133   4.352  0.3190 -0.6242 -1.0359
18528THY    CA250500   6.480   6.146   4.213 -0.2110 -0.4861 -0.0255
18528THY    CP150501   6.605   6.150   4.124 -0.0526  0.2442  0.4501
18528THY    HP150502   6.685   6.080   4.148  0.0762 -2.6580 -0.5541
18528THY    CP250503   6.666   6.289   4.129  0.4703 -0.0904 -0.2596
18528THY    HP250504   6.761   6.292   4.074 -0.3945 -1.7886 -1.9591
18528THY    HP350505   6.692   6.309   4.234  0.3287 -0.2479  0.8524
18528THY    HP450506   6.597   6.371   4.106  0.6563  0.0467 -0.0625
18528THY    CP350507   6.580   6.122   3.975 -0.3787  0.4557 -0.3980
18528THY    HP550508   6.676   6.108   3.924  0.4963  1.5621  1.2485
18528THY    HP650509   6.525   6.198   3.918  0.6517 -1.6731 -1.1821
18528THY    HP750510   6.521   6.031   3.958 -0.8961 -0.6647  0.1275
18528THY    CA350511   6.351   6.166   4.164  0.1124  0.0397  0.2182
18528THY    HA350512   6.317   6.167   4.060 -1.0145  0.3804 -0.5388
18528THY    CA450513   6.247   6.174   4.265 -0.9538  0.2076  0.2170
18528THY    HA450514   6.145   6.186   4.231 -0.5053 -1.3290 -0.1085
18528THY    CA550515   6.265   6.167   4.403  0.0082  0.0401  0.1578
18528THY    CM150516   6.149   6.159   4.497 -0.3405  0.5224  0.1345
18528THY    HM150517   6.120   6.256   4.540  1.5334  1.0319  0.5108
18528THY    HM250518   6.179   6.100   4.585  0.7937  0.0119 -0.0740
18528THY    HM350519   6.063   6.109   4.451 -1.2627 -1.0475  2.9475
18528THY    CA650520   6.392   6.140   4.443 -0.3245 -0.0103 -0.5635
18528THY    HA650521   6.410   6.138   4.550  2.0743 -0.2488  1.5296
18529THY      O50522   1.495   8.206   6.886  0.0012  0.8703 -0.0088
18529THY     HO50523   1.473   8.115   6.860  0.0603  0.8930 -0.0297
18529THY    CA150524   1.398   8.279   6.838  0.3997  0.2864  0.5666
18529THY    CA250525   1.428   8.411   6.789  0.0695 -0.0766  0.2308
18529THY    CP150526   1.575   8.453   6.786  0.5334  0.2325  0.1855
18529THY    HP150527   1.635   8.393   6.855 -1.2733  1.0436 -0.7633
18529THY    CP250528   1.599   8.605   6.821 -0.1141  0.2306 -0.1624
18529THY    HP250529   1.577   8.666   6.733 -1.9181 -0.9222 -2.3702
18529THY    HP350530   1.702   8.637   6.845  0.2606 -0.4767 -0.8078
18529THY    HP450531   1.540   8.628   6.911  2.3562  1.4789  1.8927
18529THY    CP350532   1.641   8.424   6.644  0.3427 -0.1243 -0.1661
18529THY    HP550533   1.642   8.317   6.621  0.7268 -3.1354  0.3862
18529THY    HP650534   1.746   8.455   6.638 -0.1287 -1.9169  1.2811
18529THY    HP750535   1.589   8.484   6.569 -0.8601  3.0067  3.0827
18529THY    CA350536   1.319   8.491   6.743 -0.4248  0.0883  0.2185
18529THY    HA350537   1.327   8.592   6.704  1.8134  0.3004  0.1627
18529THY    CA450538   1.192   8.426   6.732 -0.0389 -0.8480  0.0762
18529THY    HA450539   1.106   8.475   6.688 -0.9700 -2.1956 -2.6057
18529THY    CA550540   1.169   8.296   6.784  0.7644  0.8225  0.5436
18529THY    CM150541   1.030   8.243   6.768 -0.3994  0.7727  0.4198
18529THY    HM150542   0.960   8.290   6.837 -2.2771  0.8695 -2.2628
18529THY    HM250543   1.032   8.133   6.772  1.9721  1.3400  0.4282
18529THY    HM350544   0.996   8.267   6.666 -0.0887  0.3910 -0.7017
18529THY    CA650545   1.272   8.218   6.825 -0.2417 -0.7811  0.0244
18529THY    HA650546   1.260   8.118   6.866  2.3290 -0.7675 -0.3479
18530THY      O50547   7.245   1.270   3.888  0.6353  0.4947 -0.2399
18530THY     HO50548   7.194   1.335   3.938 -2.2053 -1.6306 -0.6347
18530THY    CA150549   7.146   1.197   3.835  1.2145  0.0775 -0.2923
18530THY    CA250550   7.164   1.061   3.794  0.4788 -0.7917 -0.1325
18530THY    CP150551   7.293   0.976   3.822 -0.4201 -0.1031  0.5700
18530THY    HP150552   7.360   1.015   3.899  0.9671 -0.4579 -1.0273
18530THY    CP250553   7.365   0.969   3.686 -0.1521  0.5381 -0.4258
18530THY    HP250554   7.297   0.919   3.616 -2.6206  2.3227  0.2234
18530THY    HP350555   7.462   0.921   3.704 -0.3780  1.6925 -0.4927
18530THY    HP450556   7.380   1.071   3.649 -2.0516 -0.3983 -0.4286
18530THY    CP350557   7.259   0.831   3.868 -0.0974  0.2847 -0.2415
18530THY    HP550558   7.202   0.849   3.959  0.2863  0.4740  0.0312
18530THY    HP650559   7.349   0.776   3.897 -0.3895  4.1123  1.0172
18530THY    HP750560   7.195   0.772   3.801 -3.0980  3.2122 -0.5775
18530THY    CA350561   7.056   0.993   3.746 -0.3681  0.5310 -0.0759
18530THY    HA350562   7.068   0.889   3.718 -1.2380  1.6486 -0.4994
18530THY    CA450563   6.932   1.058   3.742  0.4784  0.0614  0.3002
18530THY    HA450564   6.852   0.995   3.705  1.0179 -2.3693  0.9654
18530THY    CA550565   6.910   1.189   3.767 -0.1468  0.3160 -0.3890
18530THY    CM150566   6.770   1.248   3.756 -0.5472 -0.1595  0.6892
18530THY    HM150567   6.703   1.196   3.825 -1.8108 -1.0725  1.0750
18530THY    HM250568   6.728   1.217   3.660 -1.5750  0.8447 -1.2185
18530THY    HM350569   6.764   1.357   3.765 -0.1463 -0.8382  0.7748
18530THY    CA650570   7.019   1.262   3.823  0.6121 -0.4231 -0.3008
18530THY    HA650571   7.000   1.366   3.849 -2.7830 -0.6313 -0.7452
18531THY      O50572   2.413   4.498   3.990  0.2456  0.0749  0.3486
18531THY     HO50573   2.450   4.548   3.915 -2.1494 -1.5671 -0.1772
18531THY    CA150574   2.477   4.378   3.991 -0.6917  0.0663 -0.4082
18531THY    CA250575   2.418   4.263   4.047 -0.2181  0.4588  0.3235
18531THY    CP150576   2.289   4.285   4.131 -0.4945 -0.3563  0.0472
18531THY    HP150577   2.266   4.392   4.142 -0.2543 -0.9542  0.1627
18531THY    CP250578   2.296   4.215   4.274 -0.2478  0.4836  0.9420
18531THY    HP250579   2.219   4.246   4.346 -3.4029 -3.1884  2.5557
18531THY    HP350580   2.391   4.250   4.315  1.1472 -2.0999  0.4484
18531THY    HP450581   2.303   4.106   4.274  0.3551  2.1044  0.9639
18531THY    CP350582   2.163   4.221   4.065 -0.7435  0.3379  0.1944
18531THY    HP550583   2.080   4.224   4.137  0.2510  1.6231 -1.0577
18531THY    HP650584   2.186   4.114   4.055  0.5642  0.5206  0.4410
18531THY    HP750585   2.142   4.260   3.966  1.4430 -0.1639  0.2100
18531THY    CA350586   2.476   4.133   4.026 -0.3143 -0.7267 -0.1091
18531THY    HA350587   2.447   4.041   4.075 -1.5499 -1.0815  0.0715
18531THY    CA450588   2.602   4.135   3.971  0.0868  0.6837 -0.4598
18531THY    HA450589   2.652   4.044   3.938  1.4615 -3.0737  1.4384
18531THY    CA550590   2.656   4.251   3.909 -0.3347  1.1548 -0.0238
18531THY    CM150591   2.781   4.222   3.828  0.8839  0.3092 -0.6326
18531THY    HM150592   2.753   4.149   3.752 -0.1068 -1.1019  1.1297
18531THY    HM250593   2.863   4.184   3.891  1.0285 -0.3078 -1.3459
18531THY    HM350594   2.821   4.305   3.768 -1.3054 -2.6908 -1.5802
18531THY    CA650595   2.596   4.377   3.915 -0.3668 -0.0940  0.4653
18531THY    HA650596   2.626   4.474   3.877 -2.9236  3.7285  3.0522
18532THY      O50597   5.181   5.039   7.358 -0.1237  0.7038 -0.3694
18532THY     HO50598   5.221   4.971   7.302 -0.5048  2.2803 -1.9679
18532THY    CA150599   5.079   5.075   7.279 -0.2800 -0.6424  0.2746
18532THY    CA250600   4.953   5.115   7.332  0.2305  0.4034  0.2085
18532THY    CP150601   4.935   5.126   7.486  0.0716 -0.2612 -0.6009
18532THY    HP150602   5.026   5.094   7.539 -0.8891  0.7424 -1.7869
18532THY    CP250603   4.822   5.039   7.527 -0.4361  0.4297 -0.2697
18532THY    HP250604   4.803   5.054   7.634  1.5794  0.9213 -0.9259
18532THY    HP350605   4.851   4.933   7.517 -1.8729 -0.4545 -0.6070
18532THY    HP450606   4.738   5.051   7.457  0.6834 -0.7221  1.2641
18532THY    CP350607   4.906   5.268   7.516 -0.4848  0.3250 -0.1757
18532THY    HP550608   4.995   5.327   7.491 -0.8142  0.7172  0.5056
18532THY    HP650609   4.890   5.291   7.622  0.2770 -0.1627  3.2025
18532THY    HP750610   4.815   5.302   7.465 -1.3381  0.9712 -1.4050
18532THY    CA350611   4.858   5.158   7.242 -0.8009  0.0440  0.4400
18532THY    HA350612   4.757   5.182   7.274 -0.3134  2.6200 -0.6386
18532THY    CA450613   4.891   5.163   7.101 -0.7993 -0.4035 -0.1680
18532THY    HA450614   4.810   5.186   7.033 -0.3397 -1.1749 -0.7556
18532THY    CA550615   5.013   5.124   7.049 -0.1973  1.0085 -0.1720
18532THY    CM150616   5.054   5.129   6.895  0.0543 -0.3790 -0.1717
18532THY    HM150617   5.015   5.223   6.855 -0.0027  3.2580  1.5096
18532THY    HM250618   5.024   5.036   6.845 -0.1468 -0.7169  0.0734
18532THY    HM350619   5.163   5.129   6.895  0.1009  1.5972 -0.0653
18532THY    CA650620   5.108   5.090   7.146  0.4541  0.0301 -0.1283
18532THY    HA650621   5.211   5.089   7.114  0.2134 -0.7601 -0.2365
18533THY      O50622   6.928   1.234   6.714  0.2382 -0.7076  0.1785
18533THY     HO50623   6.983   1.184   6.652  2.0229  1.1416 -0.3026
18533THY    CA150624   7.017   1.322   6.772  0.5302 -0.4093 -0.0600
18533THY    CA250625   6.997   1.375   6.908 -1.1279 -0.8297  0.1923
18533THY    CP150626   6.877   1.341   6.986  0.2704 -0.2872  0.8861
18533THY    HP150627   6.859   1.237   6.956  0.3858 -1.1380  1.1100
18533THY    CP250628   6.763   1.428   6.941  0.5684 -0.4876 -0.5825
18533THY    HP250629   6.800   1.530   6.955 -2.6968  1.1500  0.5136
18533THY    HP350630   6.673   1.431   7.004 -0.5933 -2.1164  0.4857
18533THY    HP450631   6.745   1.424   6.833 -0.3596 -0.4017  0.7482
18533THY    CP350632   6.886   1.333   7.145 -0.5654 -0.0678 -0.4113
18533THY    HP550633   6.906   1.432   7.186 -0.1903 -0.1123 -0.4680
18533THY    HP650634   6.962   1.260   7.176  0.5282 -1.0453  0.2698
18533THY    HP750635   6.783   1.316   7.180 -1.1806 -1.9438 -0.8431
18533THY    CA350636   7.097   1.459   6.958  0.0485 -0.0197 -0.3536
18533THY    HA350637   7.084   1.495   7.060 -0.3116  0.0220 -0.6004
18533THY    CA450638   7.215   1.482   6.882  0.0624 -1.0135  0.8814
18533THY    HA450639   7.297   1.534   6.932  1.9154 -0.7063 -2.1075
18533THY    CA550640   7.228   1.437   6.758 -1.1320  0.1226 -0.1003
18533THY    CM150641   7.347   1.472   6.675 -0.1119 -0.0698 -0.5324
18533THY    HM150642   7.325   1.493   6.569  0.0231 -0.3688 -1.7990
18533THY    HM250643   7.415   1.389   6.652  0.2495  1.1820 -0.6022
18533THY    HM350644   7.399   1.559   6.716 -0.9248 -0.4864  0.1643
18533THY    CA650645   7.131   1.355   6.701  0.5403 -0.3880 -0.0385
18533THY    HA650646   7.139   1.316   6.600 -0.4376 -0.2423 -0.6411
18534THY      O50647   5.108   3.585   7.222  0.2306 -0.0121  0.1429
18534THY     HO50648   5.105   3.630   7.136  0.3931  0.1167  0.4012
18534THY    CA150649   5.054   3.464   7.195 -0.0741 -0.2275  0.1742
18534THY    CA250650   4.957   3.403   7.285  0.5017 -0.1643  0.5871
18534THY    CP150651   4.900   3.473   7.409  0.6865 -0.0623 -0.3413
18534THY    HP150652   4.851   3.563   7.369  1.2561 -0.4751 -0.2128
18534THY    CP250653   5.006   3.507   7.522  0.7178 -0.8893  0.2458
18534THY    HP250654   5.093   3.565   7.490  1.6778  0.7976 -0.1887
18534THY    HP350655   5.038   3.415   7.572 -2.7078  1.1690  0.0059
18534THY    HP450656   4.955   3.564   7.600 -2.6207 -1.0693 -2.2151
18534THY    CP350657   4.797   3.395   7.481  0.0525 -0.0385  0.6201
18534THY    HP550658   4.701   3.379   7.429 -0.3262 -0.1528  2.9522
18534THY    HP650659   4.767   3.432   7.580  2.1471  0.2106  1.7865
18534THY    HP750660   4.840   3.300   7.514  0.4368  0.4483  0.9570
18534THY    CA350661   4.905   3.285   7.234 -0.5789  0.2971 -0.1281
18534THY    HA350662   4.826   3.229   7.282  0.3656  0.0498 -1.7410
18534THY    CA450663   4.950   3.234   7.108  0.3109  0.3757 -0.1943
18534THY    HA450664   4.916   3.137   7.076  2.4983  0.4876 -1.0578
18534THY    CA550665   5.061   3.286   7.031  0.9454 -0.0654  0.2336
18534THY    CM150666   5.093   3.229   6.892  0.1657  0.1738  0.8696
18534THY    HM150667   5.180   3.283   6.852 -1.2395 -3.1392  0.9145
18534THY    HM250668   5.014   3.260   6.822 -1.0666  1.1121 -0.0549
18534THY    HM350669   5.105   3.121   6.895 -0.3844  2.1255  0.8317
18534THY    CA650670   5.109   3.405   7.082  0.5605  0.7248 -0.0501
18534THY    HA650671   5.190   3.457   7.031 -0.0184  0.1116  0.2641
18535THY      O50672   1.275   3.486   4.138 -0.5532 -0.3683 -0.4856
18535THY     HO50673   1.204   3.506   4.201 -1.0425 -0.6951 -1.1509
18535THY    CA150674   1.312   3.605   4.084  0.3859  0.0649 -0.0994
18535THY    CA250675   1.428   3.601   4.005 -0.2101 -0.1997 -0.0217
18535THY    CP150676   1.510   3.477   3.971 -0.6574  0.2384  0.0391
18535THY    HP150677   1.479   3.389   4.028 -0.2412  0.4230  0.0124
18535THY    CP250678   1.666   3.497   3.971  0.3945 -0.1137 -0.2602
18535THY    HP250679   1.719   3.429   4.039  1.4417  0.5072  1.1341
18535THY    HP350680   1.687   3.598   4.007  2.0797 -1.5562 -0.0695
18535THY    HP450681   1.707   3.474   3.872 -1.6263 -1.1526  0.4027
18535THY    CP350682   1.457   3.440   3.829  0.5545 -0.5673  0.8754
18535THY    HP550683   1.490   3.523   3.765  0.5366  1.6305  2.6838
18535THY    HP650684   1.348   3.435   3.838  0.6857  0.9070 -0.2765
18535THY    HP750685   1.492   3.343   3.791 -0.6346  2.4065 -0.8525
18535THY    CA350686   1.460   3.721   3.949  0.7324 -0.3504 -0.7059
18535THY    HA350687   1.538   3.725   3.873  0.0029 -1.1711 -1.5785
18535THY    CA450688   1.396   3.842   3.975  0.9274  0.6399  0.8949
18535THY    HA450689   1.422   3.934   3.922  0.0845 -0.8526  0.3043
18535THY    CA550690   1.291   3.840   4.066 -0.1276  0.3535 -0.3476
18535THY    CM150691   1.227   3.968   4.111  0.2830 -1.0552 -0.5052
18535THY    HM150692   1.276   4.062   4.084 -0.4925  1.1363  0.6104
18535THY    HM250693   1.218   3.973   4.220 -2.0518 -1.2501  1.6652
18535THY    HM350694   1.125   3.979   4.071 -0.4959  0.5033 -1.4887
18535THY    CA650695   1.235   3.722   4.112 -0.0863 -1.2027 -0.4132
18535THY    HA650696   1.139   3.737   4.160 -0.1495 -1.6284  0.5694
18536THY      O50697   5.800   2.530   2.778  0.2504 -0.2018 -0.2076
18536THY     HO50698   5.829   2.612   2.821  0.2938  0.3630 -0.5130
18536THY    CA150699   5.856   2.427   2.846  0.1631  0.0687 -0.0621
18536THY    CA250700   5.835   2.291   2.818  0.1981 -0.3424  0.0750
18536THY    CP150701   5.743   2.236   2.707 -0.0861 -0.7478  0.3228
18536THY    HP150702   5.678   2.317   2.671 -0.4598 -2.2930 -0.6108
18536THY    CP250703   5.650   2.123   2.753  0.0874  0.5053 -0.5916
18536THY    HP250704   5.588   2.154   2.839  2.6797  1.3959  2.7360
18536THY    HP350705   5.700   2.028   2.772 -1.3812  0.2932 -1.4441
18536THY    HP450706   5.578   2.104   2.673  0.0481 -0.1293  1.8266
18536THY    CP350707   5.823   2.179   2.585  0.2423  0.0881  0.3960
18536THY    HP550708   5.899   2.252   2.556  0.5477 -2.4244 -0.8039
18536THY    HP650709   5.758   2.160   2.498  1.2308 -0.1531 -2.4481
18536THY    HP750710   5.880   2.086   2.597 -1.8684  0.2891 -0.9437
18536THY    CA350711   5.909   2.195   2.891  0.1709 -0.6729 -0.7240
18536THY    HA350712   5.889   2.088   2.885 -0.6547  0.1641 -0.6321
18536THY    CA450713   5.996   2.234   2.993 -0.0060 -0.1788 -0.5210
18536THY    HA450714   6.034   2.160   3.062 -1.4089  1.8738  0.5721
18536THY    CA550715   6.023   2.372   3.013 -0.4870 -0.3145  0.1413
18536THY    CM150716   6.133   2.412   3.111  0.0904 -0.4669 -0.0329
18536THY    HM150717   6.103   2.366   3.206  0.2727 -1.1317 -1.5853
18536THY    HM250718   6.141   2.521   3.125 -0.8425  1.2431 -0.1402
18536THY    HM350719   6.230   2.375   3.078 -0.0337 -1.8479  0.7962
18536THY    CA650720   5.947   2.466   2.945  1.0473 -0.3905 -0.7035
18536THY    HA650721   5.965   2.573   2.958  2.8428 -1.8694 -0.7739
18537THY      O50722   7.643   3.943   6.530 -0.0551  0.4947 -0.5163
18537THY     HO50723   7.696   3.998   6.590  1.2694 -0.9221 -0.1516
18537THY    CA150724   7.640   3.821   6.592  0.2625  0.2327 -0.7129
18537THY    CA250725   7.584   3.698   6.538 -0.2797  0.1234 -0.2970
18537THY    CP150726   7.517   3.694   6.392 -0.1225 -0.1322  0.3098
18537THY    HP150727   7.506   3.799   6.363 -1.2767 -0.2144  0.1764
18537THY    CP250728   7.373   3.636   6.394  0.3118  0.3131 -0.1859
18537THY    HP250729   7.306   3.696   6.455  0.2055 -1.1580  1.2886
18537THY    HP350730   7.371   3.543   6.452 -4.2209 -2.6228 -2.2717
18537THY    HP450731   7.331   3.607   6.297  2.3208 -0.5540 -0.3679
18537THY    CP350732   7.599   3.624   6.294 -0.0597  1.1040 -0.6135
18537THY    HP550733   7.702   3.659   6.308 -0.4554  1.4843  0.4550
18537THY    HP650734   7.559   3.627   6.192  0.2255  0.9670 -1.2505
18537THY    HP750735   7.611   3.518   6.320  1.5641  0.0281 -0.7178
18537THY    CA350736   7.587   3.583   6.617  0.9370 -0.1442 -0.5665
18537THY    HA350737   7.550   3.491   6.573  0.0174  0.5377 -0.5309
18537THY    CA450738   7.646   3.588   6.745  0.7913  0.0577 -0.2171
18537THY    HA450739   7.643   3.504   6.814  0.3592 -1.2943 -1.3356
18537THY    CA550740   7.698   3.708   6.796 -0.7882 -0.3689 -0.0193
18537THY    CM150741   7.762   3.713   6.930 -0.3034 -0.7949 -0.5128
18537THY    HM150742   7.829   3.629   6.951  2.5050  1.7417  2.0558
18537THY    HM250743   7.687   3.698   7.009  1.7910  1.5429  0.4051
18537THY    HM350744   7.812   3.810   6.946 -0.6546  0.0171 -0.4562
18537THY    CA650745   7.709   3.820   6.717 -0.1156 -0.4633  0.6378
18537THY    HA650746   7.756   3.908   6.761  1.0874  1.2964 -0.8175
18538THY      O50747   3.039   8.385   4.564 -0.0391 -0.0979 -0.2292
18538THY     HO50748   3.131   8.417   4.571  1.1133 -2.0832 -2.7134
18538THY    CA150749   3.053   8.271   4.495  0.2257  0.5083 -0.1810
18538THY    CA250750   2.949   8.186   4.471  0.4744 -0.2345  0.5439
18538THY    CP150751   2.811   8.217   4.537 -0.1652 -0.8827  0.2169
18538THY    HP150752   2.800   8.321   4.572 -1.5056  0.7368 -0.4204
18538THY    CP250753   2.812   8.141   4.672  0.5043  0.7188  0.4240
18538THY    HP250754   2.806   8.033   4.657 -1.2680  0.5275  0.5108
18538THY    HP350755   2.722   8.164   4.730 -0.5072 -0.5355 -0.2415
18538THY    HP450756   2.900   8.177   4.726  1.6424 -0.1956 -0.9229
18538THY    CP350757   2.689   8.190   4.453 -0.2274  0.3922 -0.6140
18538THY    HP550758   2.590   8.218   4.492 -1.1953 -2.2122 -0.0955
18538THY    HP650759   2.679   8.083   4.434 -1.2862 -1.6385 -0.2173
18538THY    HP750760   2.690   8.238   4.354  0.1776 -0.2859 -1.9750
18538THY    CA350761   2.979   8.063   4.403 -0.9980  0.8238 -0.1223
18538THY    HA350762   2.900   7.990   4.385 -0.2072  1.4598 -1.1593
18538THY    CA450763   3.110   8.035   4.361 -0.3438  0.4545 -0.2635
18538THY    HA450764   3.135   7.947   4.303  0.7362 -0.1589  0.4178
18538THY    CA550765   3.213   8.127   4.375 -0.0248 -1.2240  0.2140
18538THY    CM150766   3.362   8.110   4.330 -0.6818 -0.1809 -0.4068
18538THY    HM150767   3.374   8.133   4.224  1.3094  0.1823  0.4272
18538THY    HM250768   3.380   8.002   4.340  1.0912 -0.4392 -0.1736
18538THY    HM350769   3.442   8.162   4.385  1.3786 -0.3381 -3.1802
18538THY    CA650770   3.181   8.249   4.440  0.4937  0.5432 -0.0558
18538THY    HA650771   3.255   8.329   4.441  0.4202 -1.1737  0.0709
18539THY      O50772   4.632   4.715   2.503  0.5643  0.2239 -0.1591
18539THY     HO50773   4.696   4.700   2.575  1.5074 -0.5438  0.1008
18539THY    CA150774   4.556   4.601   2.480  0.0247  0.1844 -0.5372
18539THY    CA250775   4.420   4.609   2.427 -0.1817  0.3268  0.9869
18539THY    CP150776   4.356   4.757   2.415  0.0623  0.2178  0.2465
18539THY    HP150777   4.433   4.833   2.399 -0.3737 -0.1971  0.6062
18539THY    CP250778   4.294   4.790   2.548  0.3908  0.0256  0.3241
18539THY    HP250779   4.251   4.890   2.531  0.4140  0.1376  0.3534
18539THY    HP350780   4.370   4.775   2.626  1.1130 -0.4394  1.4260
18539THY    HP450781   4.208   4.726   2.568  0.1441 -1.3311  0.1932
18539THY    CP350782   4.259   4.768   2.297  0.2360 -0.6998 -0.1927
18539THY    HP550783   4.174   4.702   2.316  0.0596 -1.7820 -0.2907
18539THY    HP650784   4.317   4.735   2.210  3.0081  0.7790  0.4891
18539THY    HP750785   4.209   4.864   2.277 -0.3152 -0.9175 -0.5184
18539THY    CA350786   4.351   4.484   2.405  0.3187 -0.2885 -0.0445
18539THY    HA350787   4.245   4.490   2.383  0.8651 -2.9671  1.3416
18539THY    CA450788   4.411   4.366   2.441 -0.7507  0.0066  0.3378
18539THY    HA450789   4.354   4.274   2.431 -0.5853  1.0569  0.1127
18539THY    CA550790   4.541   4.358   2.503  0.2082  0.5979  0.3930
18539THY    CM150791   4.605   4.229   2.543  0.3487  0.4579  0.5928
18539THY    HM150792   4.534   4.154   2.579  0.3154  1.3670  1.0564
18539THY    HM250793   4.663   4.221   2.635 -1.7433  1.9545  1.7882
18539THY    HM350794   4.661   4.188   2.458  0.1096 -0.1040  1.3980
18539THY    CA650795   4.613   4.479   2.520  1.5365 -0.5413 -0.0416
18539THY    HA650796   4.710   4.468   2.568  0.7402  1.7389  1.9447
18540THY      O50797   3.303   4.278   3.961 -0.3160 -0.2770 -0.4432
18540THY     HO50798   3.230   4.340   3.980 -0.4161  0.2149 -0.7054
18540THY    CA150799   3.426   4.344   3.979 -0.3220 -1.1504 -0.7396
18540THY    CA250800   3.536   4.281   4.042  0.4669 -0.4366 -0.6382
18540THY    CP150801   3.528   4.141   4.104  0.1324  0.5469 -0.1176
18540THY    HP150802   3.422   4.112   4.097 -0.1784 -1.2072  1.2985
18540THY    CP250803   3.568   4.133   4.251 -1.0833 -0.1089 -0.6345
18540THY    HP250804   3.555   4.033   4.294  0.6757  1.3659 -0.2911
18540THY    HP350805   3.505   4.199   4.311  1.3642  1.6071  0.3036
18540THY    HP450806   3.674   4.152   4.271 -0.2930 -2.5578 -1.9876
18540THY    CP350807   3.595   4.034   4.025  0.4205 -0.7941  0.0683
18540THY    HP550808   3.564   3.934   4.056  0.9811 -0.9837 -0.1705
18540THY    HP650809   3.703   4.040   4.047  0.2756 -0.0071 -0.1495
18540THY    HP750810   3.585   4.067   3.920  2.1069 -1.7123 -2.0744
18540THY    CA350811   3.666   4.346   4.045  2.1250 -0.2598 -0.0134
18540THY    HA350812   3.743   4.294   4.102  1.2942  0.5275 -0.4195
18540THY    CA450813   3.679   4.476   4.003  0.4127  0.1753  0.2157
18540THY    HA450814   3.776   4.525   4.001 -0.4045 -1.4658  1.8853
18540THY    CA550815   3.566   4.543   3.941  0.0731  0.1503 -0.1574
18540THY    CM150816   3.583   4.682   3.876  0.0549 -0.3007 -0.5214
18540THY    HM150817   3.671   4.737   3.912  0.6233  1.4300 -2.4477
18540THY    HM250818   3.496   4.746   3.897  0.5355 -2.3794  0.9314
18540THY    HM350819   3.606   4.671   3.770 -0.1466 -0.2102 -2.0044
18540THY    CA650820   3.442   4.472   3.936 -0.8370 -0.1316  0.1988
18540THY    HA650821   3.360   4.503   3.872 -0.9500 -1.4371 -2.4753
18541THY      O50822   3.928   6.735   5.745  0.3522 -0.0790 -0.4850
18541THY     HO50823   4.013   6.764   5.783  1.0197 -1.8871  0.0693
18541THY    CA150824   3.949   6.740   5.613  0.4237 -0.3688  0.5637
18541THY    CA250825   3.849   6.683   5.527 -1.1481 -0.1660 -0.1127
18541THY    CP150826   3.706   6.650   5.584 -0.1075 -0.6818  0.5319
18541THY    HP150827   3.700   6.661   5.692  1.0059 -0.6872  1.3364
18541THY    CP250828   3.680   6.500   5.567 -0.4821  0.1269 -0.3702
18541THY    HP250829   3.772   6.446   5.593  0.6285 -1.3346  0.7453
18541THY    HP350830   3.655   6.482   5.462  1.7177 -0.6423  0.6753
18541THY    HP450831   3.600   6.451   5.624 -0.5321 -1.0548 -1.7443
18541THY    CP350832   3.598   6.738   5.518 -0.5222 -0.4096 -0.4198
18541THY    HP550833   3.595   6.750   5.409  2.2223 -0.3956  1.1622
18541THY    HP650834   3.604   6.842   5.553 -0.8367  1.5464 -1.0312
18541THY    HP750835   3.496   6.710   5.545 -1.4822 -0.2781  2.8141
18541THY    CA350836   3.885   6.661   5.386  0.4054  0.1446  0.2279
18541THY    HA350837   3.817   6.616   5.314 -1.3335  2.3452 -0.8130
18541THY    CA450838   4.008   6.706   5.343 -0.4502  0.2189  0.2017
18541THY    HA450839   4.038   6.700   5.239  0.6061  0.5101  0.1345
18541THY    CA550840   4.099   6.762   5.432 -0.5193 -0.0653 -0.4267
18541THY    CM150841   4.231   6.809   5.376 -0.5088 -0.3658  0.2378
18541THY    HM150842   4.304   6.777   5.451 -0.2701 -0.8905 -0.4687
18541THY    HM250843   4.236   6.917   5.358  0.6482  0.6619  0.3801
18541THY    HM350844   4.266   6.760   5.285  0.3204 -0.1521  0.4268
18541THY    CA650845   4.071   6.778   5.566 -0.0979 -0.3552  0.3218
18541THY    HA650846   4.141   6.804   5.645 -1.3638  0.7009  0.6515
18542THY      O50847   3.903   6.214   3.586  0.6049 -0.2446  0.0413
18542THY     HO50848   3.885   6.122   3.612  0.5249 -2.0455 -0.4932
18542THY    CA150849   4.012   6.207   3.499  0.9637  0.0310 -0.3870
18542THY    CA250850   4.082   6.322   3.453 -0.1573 -0.1695  0.5954
18542THY    CP150851   4.034   6.458   3.473 -0.8969 -0.3174 -1.0596
18542THY    HP150852   3.960   6.466   3.554  0.8544  1.5909 -2.9176
18542THY    CP250853   3.971   6.515   3.342 -0.0411 -0.3104  0.1551
18542THY    HP250854   3.928   6.615   3.357  0.4525  1.9144  0.0828
18542THY    HP350855   3.894   6.440   3.317  0.5710  0.9698 -0.9398
18542THY    HP450856   4.047   6.511   3.263 -0.5185 -0.7933  0.4929
18542THY    CP350857   4.146   6.546   3.513 -0.7107  0.9107 -0.0087
18542THY    HP550858   4.195   6.509   3.604 -1.3548  0.7530 -1.2862
18542THY    HP650859   4.097   6.637   3.550 -1.9758  0.7506 -0.6133
18542THY    HP750860   4.217   6.580   3.437 -0.7464  0.9869  0.2390
18542THY    CA350861   4.200   6.303   3.367  0.4405 -0.0289 -0.6882
18542THY    HA350862   4.251   6.389   3.326  0.1441 -0.6549 -0.8099
18542THY    CA450863   4.235   6.168   3.332  0.0399 -0.3009 -0.1814
18542THY    HA450864   4.329   6.157   3.279  0.9239  1.2592 -0.5409
18542THY    CA550865   4.163   6.063   3.373  0.5477 -0.1374 -0.1185
18542THY    CM150866   4.210   5.926   3.350  0.1530 -0.5223  0.9031
18542THY    HM150867   4.131   5.871   3.298 -2.1381  0.6374  2.9138
18542THY    HM250868   4.233   5.871   3.441 -1.0359 -0.7537 -0.0275
18542THY    HM350869   4.287   5.911   3.273 -1.3497 -1.8860 -0.1540
18542THY    CA650870   4.053   6.082   3.463 -0.6416  0.5394 -0.2860
18542THY    HA650871   4.005   5.993   3.502 -2.6527  2.1598  1.4045
18543THY      O50872   3.498   3.319   4.268 -0.0404 -0.6910 -0.0659
18543THY     HO50873   3.426   3.256   4.284 -0.1412  0.6687  0.3614
18543THY    CA150874   3.573   3.255   4.187  0.2891 -0.0956  0.8134
18543THY    CA250875   3.706   3.296   4.166 -0.5325  0.9418 -0.1548
18543THY    CP150876   3.759   3.418   4.240  0.3851  0.6164 -0.4204
18543THY    HP150877   3.671   3.474   4.274 -0.4541  0.3781 -1.5569
18543THY    CP250878   3.830   3.511   4.150 -0.9406  0.1468  0.7055
18543THY    HP250879   3.759   3.525   4.068 -2.0614  0.6279 -1.6219
18543THY    HP350880   3.922   3.465   4.112 -1.6418 -0.5583 -0.1446
18543THY    HP450881   3.848   3.608   4.198  0.0155 -1.1980  1.2252
18543THY    CP350882   3.842   3.380   4.367  0.1378 -0.1074  0.6537
18543THY    HP550883   3.906   3.463   4.398  0.9624 -0.6996  0.2547
18543THY    HP650884   3.916   3.306   4.334 -0.1247  0.3265  0.1985
18543THY    HP750885   3.790   3.334   4.452  0.1970  0.7799  2.1857
18543THY    CA350886   3.784   3.216   4.085 -0.4218  0.5659  0.7390
18543THY    HA350887   3.889   3.237   4.071 -0.1529 -0.8654 -1.2416
18543THY    CA450888   3.731   3.104   4.025 -0.5377  0.1218  0.7431
18543THY    HA450889   3.792   3.044   3.959 -3.6352 -1.9093 -0.3621
18543THY    CA550890   3.598   3.071   4.042 -0.7026 -0.2652 -0.2489
18543THY    CM150891   3.543   2.947   3.977  0.0365 -1.1572 -0.2528
18543THY    HM150892   3.455   2.976   3.918 -1.8067  2.2671  1.7404
18543THY    HM250893   3.490   2.871   4.037  0.8192 -1.1240 -0.7832
18543THY    HM350894   3.607   2.893   3.906 -0.1314 -1.3104 -0.2514
18543THY    CA650895   3.519   3.147   4.124  0.2734  0.3985  0.5086
18543THY    HA650896   3.414   3.120   4.130  0.1036 -0.2418  1.0031
18544THY      O50897   3.800   3.540   3.457  0.2380  0.0762  0.7164
18544THY     HO50898   3.818   3.494   3.373  0.5982 -0.4598  1.7987
18544THY    CA150899   3.891   3.641   3.454  0.6633 -0.0161 -0.8657
18544THY    CA250900   3.942   3.695   3.570  0.3023  0.4233 -0.6785
18544THY    CP150901   3.892   3.646   3.713  0.0896  0.6932  0.1335
18544THY    HP150902   3.804   3.580   3.709  0.0095  2.0317  0.1209
18544THY    CP250903   3.841   3.754   3.798  0.4073 -0.8234 -0.1361
18544THY    HP250904   3.765   3.816   3.747  1.0799 -2.5256 -0.6706
18544THY    HP350905   3.917   3.823   3.838 -1.4833 -1.1356  2.2974
18544THY    HP450906   3.784   3.717   3.884  0.0043 -0.9980  0.0685
18544THY    CP350907   3.996   3.570   3.793  0.5638  0.0534 -0.5792
18544THY    HP550908   4.032   3.485   3.734 -1.9468  0.8494 -2.2963
18544THY    HP650909   3.956   3.557   3.894  0.6601  0.1845  0.1222
18544THY    HP750910   4.085   3.630   3.817 -0.0544  1.9668 -0.3634
18544THY    CA350911   4.030   3.806   3.562 -0.3620  0.2930  0.5951
18544THY    HA350912   4.068   3.852   3.653 -1.1327  0.6801  0.4742
18544THY    CA450913   4.061   3.858   3.437 -0.3232 -0.0213 -0.8005
18544THY    HA450914   4.124   3.946   3.424 -1.1944 -0.9739 -0.3035
18544THY    CA550915   4.009   3.806   3.326  0.0116 -0.1304 -0.7610
18544THY    CM150916   4.018   3.872   3.192 -0.0733  0.2915  0.4686
18544THY    HM150917   3.978   3.808   3.113 -0.3124  0.5104  0.3485
18544THY    HM250918   4.116   3.915   3.169  0.5807  0.5327 -0.8484
18544THY    HM350919   3.942   3.951   3.179 -0.8332 -2.0596 -0.5539
18544THY    CA650920   3.930   3.695   3.336  0.1329  0.0251  0.4717
18544THY    HA650921   3.886   3.657   3.244  1.3054  0.1237 -1.2307
18545THY      O50922   0.627   6.635   3.462  0.2708 -0.1373 -0.2808
18545THY     HO50923   0.698   6.590   3.511  2.2525 -2.7623 -0.2686
18545THY    CA150924   0.689   6.677   3.351 -0.1210  0.8085 -0.4487
18545THY    CA250925   0.631   6.774   3.257  1.0155 -0.0362  0.0920
18545THY    CP150926   0.488   6.828   3.289 -0.1484  0.4005  0.0597
18545THY    HP150927   0.418   6.745   3.307 -1.9676 -2.6152  0.7569
18545THY    CP250928   0.417   6.888   3.173 -0.5485 -0.4849  0.4707
18545THY    HP250929   0.473   6.967   3.122 -1.0829  1.5999  2.2739
18545THY    HP350930   0.316   6.923   3.198 -0.1906 -0.4879  1.5366
18545THY    HP450931   0.404   6.806   3.100  1.0059  0.2621 -0.4964
18545THY    CP350932   0.481   6.921   3.405 -0.2222 -0.4546  0.0499
18545THY    HP550933   0.557   6.919   3.484 -1.3538  0.6619 -1.4882
18545THY    HP650934   0.379   6.908   3.444  0.7527  2.1304 -0.3935
18545THY    HP750935   0.476   7.024   3.369 -4.1374  1.2514  0.6260
18545THY    CA350936   0.709   6.820   3.146  0.1544  0.3298 -0.0443
18545THY    HA350937   0.673   6.899   3.080 -0.3841  2.0013  1.1675
18545THY    CA450938   0.836   6.771   3.139 -0.4871  0.6471 -0.2365
18545THY    HA450939   0.895   6.808   3.056  1.2446  1.5817 -0.8068
18545THY    CA550940   0.895   6.684   3.230 -0.1553 -1.0071  0.2100
18545THY    CM150941   1.036   6.639   3.215 -0.5648  0.3900 -0.5210
18545THY    HM150942   1.066   6.661   3.112  1.9834  1.3404  0.8362
18545THY    HM250943   1.048   6.530   3.229 -1.8006 -0.5857 -0.8085
18545THY    HM350944   1.107   6.683   3.286 -0.2074  0.9636 -1.9543
18545THY    CA650945   0.820   6.642   3.335  0.5452 -0.2453  0.3596
18545THY    HA650946   0.865   6.569   3.403 -3.3915  0.1075 -2.0710
18546THY      O50947   2.408   5.900   4.604  0.2750 -0.0946 -0.2509
18546THY     HO50948   2.353   5.837   4.654  0.4053  0.9056  0.4070
18546THY    CA150949   2.525   5.832   4.590 -0.0189 -0.0757 -0.5975
18546THY    CA250950   2.654   5.886   4.568 -0.0840 -0.5680  0.5988
18546THY    CP150951   2.665   6.043   4.560 -0.0579 -0.2367 -0.7074
18546THY    HP150952   2.570   6.098   4.561  0.0884 -2.5460 -0.2888
18546THY    CP250953   2.751   6.090   4.438 -0.2377 -0.1078  0.5951
18546THY    HP250954   2.736   6.012   4.363  0.4172  1.0751 -0.6980
18546THY    HP350955   2.857   6.092   4.466  0.1295 -0.9825 -2.2401
18546THY    HP450956   2.726   6.192   4.407  1.4957  0.2015  1.1497
18546THY    CP350957   2.725   6.090   4.694 -0.4309  0.1946 -0.5467
18546THY    HP550958   2.832   6.069   4.684 -0.7859  0.0552 -2.5330
18546THY    HP650959   2.677   6.026   4.769  2.2308  0.9516 -1.7716
18546THY    HP750960   2.695   6.192   4.721  0.6459  0.9590 -0.4256
18546THY    CA350961   2.764   5.799   4.554 -0.7767 -0.1614 -0.0237
18546THY    HA350962   2.863   5.835   4.530 -0.9158 -1.4312 -0.4130
18546THY    CA450963   2.749   5.657   4.549  0.4165 -0.7171  0.4809
18546THY    HA450964   2.834   5.593   4.530 -0.3296  0.3949 -0.8774
18546THY    CA550965   2.618   5.600   4.567 -0.0966 -0.0509  0.0797
18546THY    CM150966   2.588   5.455   4.585  0.3380  0.1492 -0.5243
18546THY    HM150967   2.623   5.400   4.497  0.4284  0.9553 -1.7861
18546THY    HM250968   2.482   5.431   4.599  0.0961  1.3758  1.0618
18546THY    HM350969   2.647   5.430   4.674  0.5913  0.5271  1.2721
18546THY    CA650970   2.510   5.692   4.588  0.2269  0.1312  0.5094
18546THY    HA650971   2.411   5.652   4.605 -0.4239  0.5701  2.1956
18547THY      O50972   9.124   5.502   5.717 -0.0530 -0.0365  0.0450
18547THY     HO50973   9.066   5.446   5.662 -0.1118 -0.1555  0.2240
18547THY    CA150974   9.092   5.625   5.676 -0.3457  0.0243  0.2516
18547THY    CA250975   9.137   5.741   5.749 -0.8778  0.3974 -0.1704
18547THY    CP150976   9.224   5.732   5.865 -0.4857  0.3278 -0.0538
18547THY    HP150977   9.290   5.645   5.858  0.2458  1.8686  0.3349
18547THY    CP250978   9.125   5.720   5.988 -0.2623  0.4398 -0.3797
18547THY    HP250979   9.064   5.629   5.985 -0.1977  0.8308 -0.4375
18547THY    HP350980   9.046   5.796   5.989 -0.7567  1.2419 -0.8951
18547THY    HP450981   9.172   5.724   6.087 -2.9058  1.7156  2.0429
18547THY    CP350982   9.331   5.845   5.883 -0.5840  0.6228 -0.7668
18547THY    HP550983   9.279   5.942   5.882 -2.7159 -0.2864 -1.8718
18547THY    HP650984   9.397   5.850   5.795 -0.1291  0.7644 -3.3029
18547THY    HP750985   9.381   5.835   5.980  0.7234  0.3245  1.8069
18547THY    CA350986   9.092   5.864   5.704  0.2466 -0.1717  0.4409
18547THY    HA350987   9.116   5.956   5.757  2.7356 -0.6297  0.1064
18547THY    CA450988   9.002   5.866   5.594  0.2603 -0.0171  0.9407
18547THY    HA450989   8.973   5.962   5.551 -1.7041 -0.7102  0.0979
18547THY    CA550990   8.966   5.753   5.525 -0.6369  0.1861 -0.2615
18547THY    CM150991   8.865   5.756   5.420  0.3312  0.2200  0.4981
18547THY    HM150992   8.883   5.674   5.349 -0.8768 -3.2013  2.9638
18547THY    HM250993   8.870   5.849   5.362  0.1098  1.4660  1.3122
18547THY    HM350994   8.764   5.737   5.457  0.2322 -0.5743 -0.6451
18547THY    CA650995   9.005   5.630   5.568  0.1656 -0.3041  0.8129
18547THY    HA650996   8.966   5.541   5.520  1.9052  2.0323 -1.3714
18548THY      O50997   2.059   6.362   2.375 -0.1903  0.0359 -0.1802
18548THY     HO50998   1.991   6.404   2.320 -0.5103 -1.3149 -2.2983
18548THY    CA150999   2.144   6.286   2.296 -0.6386 -0.3727 -0.5815
18548THY    CA251000   2.225   6.190   2.359  0.0609  0.3341  0.2371
18548THY    CP151001   2.216   6.156   2.509  0.0458  0.4156 -0.0171
18548THY    HP151002   2.142   6.222   2.556  1.4610  2.2621  0.3377
18548THY    CP251003   2.341   6.190   2.593 -0.0402  0.2634  0.1568
18548THY    HP251004   2.315   6.183   2.699 -0.5769  0.4183  3.1862
18548THY    HP351005   2.379   6.289   2.565  0.1056  0.5799  0.1919
18548THY    HP451006   2.417   6.115   2.568 -1.0551 -0.1575 -0.7563
18548THY    CP351007   2.175   6.005   2.520  0.3678 -0.3778 -0.2180
18548THY    HP551008   2.168   5.983   2.627  1.5048  0.1515  1.7358
18548THY    HP651009   2.250   5.932   2.486 -0.0189  1.1409 -1.3672
18548THY    HP751010   2.084   5.994   2.460 -0.4092  0.4214  1.5686
18548THY    CA351011   2.326   6.127   2.282 -0.5058  0.3520 -1.0548
18548THY    HA351012   2.397   6.062   2.332  1.8756 -0.4407  0.7806
18548THY    CA451013   2.341   6.169   2.149 -0.1397  0.0514  0.5321
18548THY    HA451014   2.413   6.125   2.079 -2.1094 -2.4198  1.0195
18548THY    CA551015   2.259   6.266   2.088  0.8601 -0.2653  0.4765
18548THY    CM151016   2.276   6.309   1.947 -0.0899 -0.5737 -0.1041
18548THY    HM151017   2.177   6.311   1.900 -0.0498 -0.6436  0.3927
18548THY    HM251018   2.345   6.234   1.907 -1.9892 -0.8939 -1.7659
18548THY    HM351019   2.315   6.412   1.944 -0.5853 -0.8989  0.0808
18548THY    CA651020   2.153   6.319   2.162 -0.2466  0.0127 -0.1793
18548THY    HA651021   2.093   6.396   2.115 -1.1312 -1.2671 -1.6008
18549THY      O51022   8.064   3.189   4.078  0.4588  0.4928 -0.3277
18549THY     HO51023   8.010   3.119   4.118 -1.7938  2.1533  2.1253
18549THY    CA151024   8.000   3.311   4.104 -0.0405  0.1437  1.1865
18549THY    CA251025   8.029   3.431   4.040  0.2957  0.0034 -0.0926
18549THY    CP151026   8.139   3.443   3.940 -0.8084 -0.3366  0.4237
18549THY    HP151027   8.181   3.343   3.921 -0.1861  1.1424  0.3791
18549THY    CP251028   8.254   3.536   3.991 -0.4267  0.2620 -0.7733
18549THY    HP251029   8.276   3.506   4.094  0.0641  0.5248  0.3986
18549THY    HP351030   8.214   3.639   3.996  0.6670  0.8093 -0.3600
18549THY    HP451031   8.349   3.515   3.942  0.1226  1.5385 -1.3333
18549THY    CP351032   8.099   3.489   3.802  0.4360 -0.1464  0.5029
18549THY    HP551033   8.072   3.596   3.806  4.0951  1.3376  1.5274
18549THY    HP651034   8.015   3.429   3.765  1.6288 -0.1963 -1.2006
18549THY    HP751035   8.180   3.477   3.729  0.1999 -0.3548  0.1822
18549THY    CA351036   7.959   3.544   4.080  0.0994 -1.2546 -1.0435
18549THY    HA351037   7.992   3.642   4.048  0.6598  0.6180 -0.5784
18549THY    CA451038   7.853   3.532   4.171  0.2153  0.5849  0.0862
18549THY    HA451039   7.798   3.620   4.202 -1.4835 -0.3837 -0.6004
18549THY    CA551040   7.824   3.411   4.236 -0.5076  0.6306 -0.3147
18549THY    CM151041   7.721   3.402   4.346 -0.1322  0.2200  0.0808
18549THY    HM151042   7.627   3.396   4.290  0.1356 -0.5237  2.0394
18549THY    HM251043   7.720   3.493   4.407 -0.0933  1.7446 -0.9056
18549THY    HM351044   7.738   3.308   4.401 -0.7231 -3.9813 -2.7665
18549THY    CA651045   7.899   3.303   4.200 -0.1036  0.3745 -0.5837
18549THY    HA651046   7.878   3.209   4.251 -0.0060  1.0963 -0.2200
18550THY      O51047   4.875   2.592   7.504  0.2753 -0.0226 -0.3913
18550THY     HO51048   4.921   2.674   7.481  0.7672  2.9875  0.3123
18550THY    CA151049   4.941   2.551   7.617 -0.0409  0.5927 -0.5071
18550THY    CA251050   4.879   2.466   7.712 -0.9289  0.1958 -0.1149
18550THY    CP151051   4.730   2.444   7.703  0.8234 -0.0379  0.7048
18550THY    HP151052   4.689   2.467   7.604  0.1993 -0.1008 -0.5902
18550THY    CP251053   4.662   2.547   7.802  0.0427  0.2462  0.3241
18550THY    HP251054   4.684   2.520   7.906  0.8739 -0.4108 -1.7319
18550THY    HP351055   4.554   2.540   7.790 -0.0869  2.0002 -2.3153
18550THY    HP451056   4.679   2.652   7.779  2.5183 -1.1374 -0.2829
18550THY    CP351057   4.686   2.300   7.743 -0.0030  0.2526  0.1328
18550THY    HP551058   4.707   2.276   7.848  2.9107  0.0621  1.4301
18550THY    HP651059   4.735   2.224   7.681 -0.3768 -0.7975  0.7273
18550THY    HP751060   4.576   2.304   7.737 -0.0003  0.7632  1.3183
18550THY    CA351061   4.966   2.413   7.812 -0.5564  0.3102 -0.4030
18550THY    HA351062   4.932   2.344   7.888 -1.7092  1.0999  0.9694
18550THY    CA451063   5.100   2.456   7.825  0.5768  0.0961  0.2541
18550THY    HA451064   5.159   2.408   7.902 -0.2890  0.7414  0.1919
18550THY    CA551065   5.152   2.549   7.735 -0.9857 -0.2304 -0.2613
18550THY    CM151066   5.290   2.594   7.750 -0.0825 -0.2194 -0.3330
18550THY    HM151067   5.307   2.696   7.714 -1.7831  3.5850  1.4863
18550THY    HM251068   5.364   2.528   7.702  2.1059 -1.1550  2.5838
18550THY    HM351069   5.305   2.599   7.859 -0.5081 -0.0277 -2.3599
18550THY    CA651070   5.073   2.594   7.631 -0.3542 -0.3584 -0.6537
18550THY    HA651071   5.106   2.671   7.562 -1.4265  1.3551  1.4597
18551THY      O51072   1.003   2.094   5.101 -0.0283  0.0496 -0.5231
18551THY     HO51073   1.024   2.019   5.043  0.1905 -0.5565 -0.0076
18551THY    CA151074   0.916   2.061   5.192  0.6864  0.0049  0.0862
18551THY    CA251075   0.912   2.132   5.314 -0.0017 -0.1338  0.1971
18551THY    CP151076   1.014   2.238   5.356  0.3051 -0.9955 -0.1572
18551THY    HP151077   1.061   2.269   5.262  0.0653 -1.4698 -1.1802
18551THY    CP251078   1.116   2.167   5.443 -0.6722  0.3914  0.2605
18551THY    HP251079   1.147   2.081   5.383 -2.6379 -0.9218  0.4087
18551THY    HP351080   1.091   2.123   5.541  3.3032  0.2814 -2.8558
18551THY    HP451081   1.207   2.226   5.456 -0.8805  1.9615  0.2714
18551THY    CP351082   0.947   2.356   5.420  0.5797 -0.6495 -0.0572
18551THY    HP551083   1.019   2.431   5.454 -1.4245  1.6267  0.9636
18551THY    HP651084   0.894   2.332   5.513  1.5666  1.0271  3.6285
18551THY    HP751085   0.874   2.400   5.351  1.3645 -1.7092 -0.3842
18551THY    CA351086   0.820   2.087   5.416 -0.0944  0.8609 -0.1970
18551THY    HA351087   0.830   2.119   5.520  1.3762  0.4721  0.7313
18551THY    CA451088   0.717   2.006   5.372  0.5985  0.6080  0.3061
18551THY    HA451089   0.635   1.981   5.439 -0.9065 -0.4788  2.0710
18551THY    CA551090   0.724   1.937   5.249  0.3233 -0.0845 -0.0251
18551THY    CM151091   0.622   1.835   5.204 -0.2772  0.3208  0.0133
18551THY    HM151092   0.523   1.881   5.216  0.7168  0.9956  2.0955
18551THY    HM251093   0.618   1.742   5.262 -0.6629 -0.4763 -0.4815
18551THY    HM351094   0.631   1.807   5.099 -0.4623  0.6964 -1.5771
18551THY    CA651095   0.821   1.968   5.158 -0.1873 -0.5066  0.3375
18551THY    HA651096   0.820   1.922   5.060 -1.9460 -0.1753 -0.3748
18552THY      O51097   0.574   2.574   1.696 -0.5622 -0.3948 -0.1322
18552THY     HO51098   0.521   2.555   1.617  0.0113 -1.1475  1.2421
18552THY    CA151099   0.489   2.623   1.780 -0.4892 -0.0368 -0.3357
18552THY    CA251100   0.509   2.737   1.863 -0.3171  0.4775  0.0557
18552THY    CP151101   0.645   2.814   1.849 -0.4956 -0.5607  0.2250
18552THY    HP151102   0.732   2.774   1.797  0.9905  1.0941  1.1791
18552THY    CP251103   0.694   2.842   1.992  0.3312  0.1635 -0.9453
18552THY    HP251104   0.693   2.748   2.048 -0.5032  2.2840  0.2452
18552THY    HP351105   0.630   2.912   2.048  2.0216  1.1439 -0.1406
18552THY    HP451106   0.796   2.880   1.982 -0.4454  1.3556  1.7497
18552THY    CP351107   0.610   2.943   1.776  0.3322 -0.4781 -0.2170
18552THY    HP551108   0.613   2.921   1.668 -0.5740 -0.8577  1.3503
18552THY    HP651109   0.680   3.021   1.808  0.4288 -1.4812  0.1192
18552THY    HP751110   0.514   2.976   1.817  0.7411  0.4739 -0.1834
18552THY    CA351111   0.406   2.778   1.949  0.5940  0.1912  0.7337
18552THY    HA351112   0.402   2.874   2.000  0.7488 -0.3029  1.0013
18552THY    CA451113   0.290   2.693   1.959  0.0580 -0.2657 -0.3123
18552THY    HA451114   0.216   2.725   2.031  1.2618  0.1701  1.6855
18552THY    CA551115   0.276   2.585   1.882 -0.3521 -0.8186  0.2077
18552THY    CM151116   0.154   2.501   1.893 -0.2877  0.0460 -0.2307
18552THY    HM151117   0.063   2.549   1.856 -1.4064  2.6754 -0.1542
18552THY    HM251118   0.144   2.478   2.000  0.9218 -0.0518 -1.3021
18552THY    HM351119   0.160   2.406   1.839  0.9992 -0.9766  0.4090
18552THY    CA651120   0.368   2.552   1.788 -0.1011 -0.6672  0.1145
18552THY    HA651121   0.338   2.466   1.728 -0.2603  1.1704 -1.1801
18553THY      O51122   5.610   3.908   3.780 -0.4615  0.4429 -0.3303
18553THY     HO51123   5.587   3.845   3.850  0.3443  0.5235 -0.5435
18553THY    CA151124   5.571   3.848   3.672 -1.4089  0.6722  0.3492
18553THY    CA251125   5.606   3.892   3.545 -0.3567  0.4417 -0.3615
18553THY    CP151126   5.703   4.014   3.525  0.4979  0.7093  1.2819
18553THY    HP151127   5.722   4.064   3.621  0.7216  0.2606  2.0805
18553THY    CP251128   5.641   4.137   3.443  0.7198  0.3351 -0.6331
18553THY    HP251129   5.535   4.150   3.467  0.7829  0.0736  0.4726
18553THY    HP351130   5.658   4.110   3.339  0.3123  0.4423 -1.3314
18553THY    HP451131   5.698   4.228   3.466 -1.2182  0.3720  0.6233
18553THY    CP351132   5.835   3.981   3.452  0.2059  0.3412 -0.5445
18553THY    HP551133   5.813   3.930   3.358  0.6947  1.4515 -2.9178
18553THY    HP651134   5.896   3.926   3.525  1.0980  0.7762  0.9503
18553THY    HP751135   5.897   4.070   3.432 -1.2134 -1.5150  0.0789
18553THY    CA351136   5.548   3.823   3.437 -0.3163 -1.0042 -0.4058
18553THY    HA351137   5.561   3.869   3.340 -0.1458 -0.0832  1.5939
18553THY    CA451138   5.470   3.712   3.454  0.3237 -0.0216  0.2984
18553THY    HA451139   5.441   3.659   3.364 -1.1998 -0.6522  2.0806
18553THY    CA551140   5.439   3.662   3.576 -0.6436 -0.0125 -0.1178
18553THY    CM151141   5.354   3.538   3.591 -0.2686 -0.4981  0.1257
18553THY    HM151142   5.409   3.457   3.543 -0.9400 -1.4415  0.2101
18553THY    HM251143   5.253   3.542   3.548  0.1686 -1.4698  1.5976
18553THY    HM351144   5.343   3.517   3.698  1.9139 -0.1376  0.5829
18553THY    CA651145   5.491   3.732   3.686  0.0166  0.4514 -0.1861
18553THY    HA651146   5.467   3.696   3.786  0.4373 -0.4164 -3.1119
18554THY      O51147   0.682   1.227   7.789 -0.4746  0.2097  0.0659
18554THY     HO51148   0.608   1.165   7.800 -0.0607  2.1049 -0.1405
18554THY    CA151149   0.667   1.284   7.668 -0.0419  0.2178 -0.5524
18554THY    CA251150   0.742   1.404   7.635 -0.7710 -0.0798  0.6342
18554THY    CP151151   0.827   1.484   7.740 -0.1774  0.5625 -0.4258
18554THY    HP151152   0.834   1.434   7.837  0.0318  1.3712  1.1347
18554THY    CP251153   0.770   1.625   7.753 -0.4721 -0.8082  0.6301
18554THY    HP251154   0.838   1.683   7.817 -0.3756  0.0445 -0.3965
18554THY    HP351155   0.671   1.620   7.799 -0.4965 -0.9988 -1.2231
18554THY    HP451156   0.753   1.680   7.660 -0.2915  0.0745  2.2666
18554THY    CP351157   0.972   1.508   7.683  0.6142  0.3029  0.5664
18554THY    HP551158   1.027   1.413   7.680 -0.5614  3.4844 -0.3211
18554THY    HP651159   1.026   1.567   7.759  0.0774  1.4229 -0.3522
18554THY    HP751160   0.966   1.561   7.587  0.5839 -1.2444 -2.0987
18554THY    CA351161   0.713   1.463   7.508  0.3248 -0.2030 -0.1405
18554THY    HA351162   0.766   1.552   7.474  1.4754 -1.1240 -1.1457
18554THY    CA451163   0.618   1.397   7.422 -0.2064  0.0655 -0.1547
18554THY    HA451164   0.594   1.441   7.326 -0.7647 -0.6044 -1.8462
18554THY    CA551165   0.558   1.281   7.457 -0.2344  0.0265 -0.3247
18554THY    CM151166   0.457   1.216   7.364 -1.2206  0.1581 -0.3127
18554THY    HM151167   0.481   1.226   7.258 -0.8802  0.3742  1.6222
18554THY    HM251168   0.359   1.263   7.380 -0.4102  1.2848  1.0951
18554THY    HM351169   0.433   1.113   7.392  1.5520 -1.7366 -1.5854
18554THY    CA651170   0.577   1.226   7.582 -0.2047 -0.0190 -0.7708
18554THY    HA651171   0.528   1.136   7.617  0.5488  1.3559 -0.6730
18555THY      O51172   2.639   5.338   1.659  0.2298  0.6161  0.1144
18555THY     HO51173   2.608   5.365   1.571  3.6837 -0.3482  1.4887
18555THY    CA151174   2.541   5.302   1.743  0.0658  0.3795  0.5476
18555THY    CA251175   2.574   5.253   1.867  0.6003 -0.0214  0.2886
18555THY    CP151176   2.722   5.241   1.912  0.0693  0.0621  0.0383
18555THY    HP151177   2.803   5.248   1.839  1.0424  0.9955 -1.1136
18555THY    CP251178   2.752   5.109   1.984  0.0887  0.2540 -0.6183
18555THY    HP251179   2.680   5.084   2.063  0.8428  1.4774  0.8791
18555THY    HP351180   2.853   5.100   2.025 -0.0131  0.0799 -3.0753
18555THY    HP451181   2.757   5.033   1.905 -0.1990  0.0656 -0.4432
18555THY    CP351182   2.750   5.341   2.019  0.4778  0.8026  0.5766
18555THY    HP551183   2.732   5.438   1.971 -1.0945  0.3671  0.1022
18555THY    HP651184   2.858   5.342   2.037  0.9832 -1.9334  1.4077
18555THY    HP751185   2.696   5.318   2.112 -1.3464 -0.7343 -1.8963
18555THY    CA351186   2.471   5.231   1.964  0.3456  0.5710  0.2809
18555THY    HA351187   2.496   5.195   2.063 -0.4616  0.8423  0.4496
18555THY    CA451188   2.340   5.242   1.919 -0.1641 -0.2160  0.5538
18555THY    HA451189   2.259   5.214   1.986  1.1523  1.1166 -0.2329
18555THY    CA551190   2.311   5.283   1.785 -0.6009 -0.6374  0.3322
18555THY    CM151191   2.173   5.286   1.739  0.3805 -0.2555  0.0124
18555THY    HM151192   2.110   5.311   1.825 -0.2085 -0.6871  0.0347
18555THY    HM251193   2.146   5.186   1.703 -0.1428 -0.8919  0.3723
18555THY    HM351194   2.152   5.345   1.649  1.8931  0.2388  1.3559
18555THY    CA651195   2.415   5.308   1.700 -0.4294 -0.4335 -0.3775
18555THY    HA651196   2.398   5.346   1.600  1.0657  0.0341  1.6921
18556THY      O51197   6.149   5.663   7.478  0.5333 -0.4044 -0.0740
18556THY     HO51198   6.209   5.596   7.442 -0.5277  2.0048 -2.4818
18556THY    CA151199   6.101   5.721   7.368  0.3360  0.2749 -0.1060
18556THY    CA251200   5.984   5.803   7.371 -0.1393 -0.2077 -0.6131
18556THY    CP151201   5.910   5.836   7.500 -0.8142 -0.0960  0.0904
18556THY    HP151202   5.969   5.828   7.592  0.8314 -0.8371  2.5281
18556THY    CP251203   5.797   5.732   7.535 -0.3318  0.6565 -0.2611
18556THY    HP251204   5.760   5.754   7.636 -0.3283  0.2186  2.0272
18556THY    HP351205   5.838   5.631   7.528 -0.6914 -2.2886 -0.2876
18556THY    HP451206   5.715   5.742   7.463 -0.2775  0.0360 -3.4938
18556THY    CP351207   5.876   5.993   7.509 -0.0507 -0.0642  0.6341
18556THY    HP551208   5.782   6.012   7.455 -1.1594  2.0104  1.4701
18556THY    HP651209   5.951   6.060   7.468  0.2161 -0.3746  0.1452
18556THY    HP751210   5.857   6.026   7.612 -3.9549 -0.7954  1.2045
18556THY    CA351211   5.951   5.864   7.247  0.6254 -0.3701  0.4211
18556THY    HA351212   5.871   5.937   7.254  0.6442  1.4256  0.3075
18556THY    CA451213   6.023   5.847   7.135  0.1173 -0.5452  0.6073
18556THY    HA451214   5.989   5.900   7.046 -1.3821 -2.2066 -2.8524
18556THY    CA551215   6.150   5.783   7.142  0.1408 -0.0767  0.3663
18556THY    CM151216   6.235   5.774   7.013  0.0917  0.1328  0.1078
18556THY    HM151217   6.338   5.746   7.038 -0.3715  1.0314 -0.8478
18556THY    HM251218   6.238   5.871   6.961 -2.0463  0.6790  0.5229
18556THY    HM351219   6.181   5.704   6.949  0.5320 -2.8631  2.3069
18556THY    CA651220   6.179   5.706   7.255 -0.3251 -0.5706  0.1789
18556THY    HA651221   6.277   5.660   7.263  0.8445  1.0971  2.7199
18557THY      O51222   0.589   8.062   5.832 -0.2663 -0.0018  0.4140
18557THY     HO51223   0.557   8.120   5.761  0.9465 -0.0959  0.9936
18557THY    CA151224   0.547   7.933   5.800  0.2627 -0.2422 -0.6054
18557THY    CA251225   0.618   7.826   5.862  0.5732 -0.4159  0.3306
18557THY    CP151226   0.736   7.858   5.963  0.3881  0.2275  0.2438
18557THY    HP151227   0.762   7.964   5.965 -2.3268  3.0697  0.9989
18557THY    CP251228   0.877   7.776   5.946  0.8349  0.1694 -0.5061
18557THY    HP251229   0.857   7.670   5.968 -1.7686 -0.9029 -0.3342
18557THY    HP351230   0.945   7.827   6.014  0.0670 -1.1871  2.5341
18557THY    HP451231   0.918   7.777   5.844  0.0334 -0.1762 -1.0486
18557THY    CP351232   0.684   7.839   6.107  0.6523  0.4520 -0.1778
18557THY    HP551233   0.661   7.731   6.110 -3.5279 -2.4529  0.3958
18557THY    HP651234   0.586   7.883   6.124  0.5436 -0.5711 -0.0001
18557THY    HP751235   0.756   7.866   6.185 -0.3612  1.2599  0.2616
18557THY    CA351236   0.569   7.693   5.842 -0.2534  0.8948  0.0846
18557THY    HA351237   0.615   7.605   5.886 -0.5437  1.2659  0.1176
18557THY    CA451238   0.461   7.674   5.753  0.1257  0.2193  0.8151
18557THY    HA451239   0.425   7.573   5.734 -0.9756  1.6692  0.9053
18557THY    CA551240   0.403   7.777   5.686  0.3897  0.6752  0.1999
18557THY    CM151241   0.293   7.743   5.585 -0.1607 -0.4502 -0.3931
18557THY    HM151242   0.254   7.828   5.528  0.3610  1.7745  1.4121
18557THY    HM251243   0.211   7.714   5.652  0.1037  0.1139  0.1506
18557THY    HM351244   0.326   7.663   5.518  1.3542  0.1749 -0.3182
18557THY    CA651245   0.444   7.908   5.712  0.2680 -0.1266 -0.3372
18557THY    HA651246   0.391   7.990   5.664  0.2692  0.1927 -0.1511
18558THY      O51247   4.354   5.943   4.156 -0.9140  0.2312  0.3853
18558THY     HO51248   4.431   5.912   4.106 -2.4260 -1.4166 -0.9434
18558THY    CA151249   4.279   6.004   4.068 -0.2983  0.2189  0.2442
18558THY    CA251250   4.151   6.053   4.105 -0.1543 -0.2670  0.3570
18558THY    CP151251   4.103   6.052   4.247 -0.5559  0.1083  0.4280
18558THY    HP151252   4.187   6.061   4.317 -1.8192  1.4619  2.3690
18558THY    CP251253   4.053   5.908   4.274  0.5574  0.2070  0.4960
18558THY    HP251254   4.002   5.900   4.370  1.3902  0.5272 -1.3757
18558THY    HP351255   4.139   5.841   4.282  1.0470 -0.2198  1.0597
18558THY    HP451256   3.989   5.870   4.194  1.7213 -1.1786  1.2946
18558THY    CP351257   3.983   6.147   4.285  0.3972  0.0692  0.2917
18558THY    HP551258   4.000   6.250   4.253 -2.2087 -1.2094  0.3719
18558THY    HP651259   3.967   6.145   4.394  0.4199  0.0942 -2.3449
18558THY    HP751260   3.891   6.104   4.245 -0.0035  1.3525 -0.1066
18558THY    CA351261   4.070   6.099   4.000 -0.2067  0.4218 -0.1984
18558THY    HA351262   3.962   6.110   4.007  0.1041  3.1985  2.3085
18558THY    CA451263   4.127   6.112   3.875  0.3808 -0.4769 -0.4079
18558THY    HA451264   4.075   6.166   3.797  1.6576 -0.2552  1.2506
18558THY    CA551265   4.265   6.090   3.850  0.2401  0.7979  0.2886
18558THY    CM151266   4.332   6.134   3.722 -0.2244 -0.2463  0.3743
18558THY    HM151267   4.321   6.061   3.641  1.0635  1.9417 -2.4232
18558THY    HM251268   4.435   6.160   3.747 -0.9751  1.5469  1.8206
18558THY    HM351269   4.294   6.232   3.688  1.4357 -0.3980  1.0038
18558THY    CA651270   4.335   6.025   3.949  0.4580 -0.6581 -0.0149
18558THY    HA651271   4.440   6.007   3.926  1.2816  0.7122  2.5570
18559THY      O51272   9.350   2.190   4.783 -0.7286  0.3204  0.2565
18559THY     HO51273   9.357   2.121   4.851 -1.5060 -0.6586 -0.8499
18559THY    CA151274   9.271   2.290   4.828 -0.1890 -0.0004 -0.0633
18559THY    CA251275   9.206   2.376   4.736 -0.3280 -0.3283  0.8926
18559THY    CP151276   9.203   2.342   4.592  0.2895 -0.7905  1.0932
18559THY    HP151277   9.198   2.233   4.578 -0.9117  0.3860  0.9693
18559THY    CP251278   9.333   2.373   4.535  0.3518  0.4145 -0.4451
18559THY    HP251279   9.349   2.481   4.550 -0.2594  0.8353 -0.4062
18559THY    HP351280   9.333   2.349   4.428  0.7903  0.0443  1.0894
18559THY    HP451281   9.422   2.320   4.569  2.2492 -1.9318  1.0615
18559THY    CP351282   9.077   2.397   4.521  0.4131  0.1626  0.0442
18559THY    HP551283   9.046   2.335   4.436  0.6506  0.1926 -0.1148
18559THY    HP651284   9.087   2.503   4.495 -0.2986 -2.4061 -0.4654
18559THY    HP751285   8.991   2.387   4.589  1.7217  2.1648  1.5002
18559THY    CA351286   9.130   2.476   4.784  1.0077 -0.2051  0.1953
18559THY    HA351287   9.078   2.549   4.723 -0.5382  2.1816  1.2289
18559THY    CA451288   9.112   2.492   4.928 -0.4986 -0.5063  0.2665
18559THY    HA451289   9.055   2.572   4.975 -0.3601  0.3096 -0.0958
18559THY    CA551290   9.183   2.417   5.020 -0.1064  0.6071  1.0656
18559THY    CM151291   9.185   2.446   5.164  0.1975  0.6651 -0.4617
18559THY    HM151292   9.255   2.381   5.219 -0.1639 -0.1126 -1.5324
18559THY    HM251293   9.085   2.436   5.207  0.1622  0.6471 -0.1916
18559THY    HM351294   9.216   2.549   5.188  1.3392  0.1226 -0.6648
18559THY    CA651295   9.264   2.318   4.968  0.9824 -0.3306 -0.5663
18559THY    HA651296   9.322   2.251   5.031 -1.2913 -0.1416 -2.5014
18560THY      O51297   4.872   3.483   4.014 -0.2555  0.1886 -0.2007
18560THY     HO51298   4.852   3.567   4.059  0.8137 -0.9413  0.7039
18560THY    CA151299   4.875   3.375   4.096  0.1843  0.2531 -0.8776
18560THY    CA251300   4.860   3.245   4.049 -0.0271 -0.0765 -0.3674
18560THY    CP151301   4.874   3.221   3.902  0.2659  0.6877  0.1366
18560THY    HP151302   4.892   3.311   3.842  2.7774  1.7578  0.4343
18560THY    CP251303   4.747   3.162   3.844 -0.2609  0.1806 -0.1263
18560THY    HP251304   4.734   3.057   3.874 -0.5168  0.0466 -0.1342
18560THY    HP351305   4.757   3.160   3.735 -0.0916  0.1777  0.6607
18560THY    HP451306   4.652   3.209   3.873 -0.0336  0.0405  0.4149
18560THY    CP351307   4.993   3.125   3.870 -0.6695 -0.2678 -0.8136
18560THY    HP551308   5.005   3.110   3.762 -0.1275 -0.3304 -0.0274
18560THY    HP651309   4.972   3.023   3.904  1.2257 -1.6050 -1.7232
18560THY    HP751310   5.087   3.156   3.918  0.1221 -1.6232 -1.0283
18560THY    CA351311   4.839   3.144   4.143  0.2795  0.1854  0.5500
18560THY    HA351312   4.821   3.041   4.113  0.0481  2.5324 -0.1492
18560THY    CA451313   4.844   3.169   4.281  0.0527  0.0923 -0.6448
18560THY    HA451314   4.822   3.095   4.357  1.4446  0.0717 -1.1113
18560THY    CA551315   4.875   3.299   4.329 -0.0454  0.2054  0.6118
18560THY    CM151316   4.875   3.327   4.478 -0.0243 -0.4921  0.2142
18560THY    HM151317   4.961   3.385   4.513  1.1550 -0.5817 -1.3918
18560THY    HM251318   4.881   3.236   4.540  2.2812  0.9628  1.2560
18560THY    HM351319   4.789   3.382   4.516  1.5625  2.3347  0.9718
18560THY    CA651320   4.888   3.402   4.234  0.7020 -0.2476 -0.2986
18560THY    HA651321   4.905   3.506   4.258  1.0418 -1.7280  0.0080
18561THY      O51322   7.194   3.830   4.032  0.1120 -0.4299  0.1094
18561THY     HO51323   7.192   3.896   4.104  1.9216 -0.2919  0.0706
18561THY    CA151324   7.212   3.899   3.919 -0.4281  0.4262 -0.4670
18561THY    CA251325   7.239   3.834   3.801  0.1222 -0.5692 -0.2467
18561THY    CP151326   7.236   3.681   3.793 -0.0302 -0.0037  0.1158
18561THY    HP151327   7.260   3.637   3.891 -2.0479  0.7084  0.5039
18561THY    CP251328   7.338   3.630   3.688  0.4680 -0.2845 -0.1265
18561THY    HP251329   7.431   3.688   3.681 -0.6017  1.4794  1.9851
18561THY    HP351330   7.288   3.633   3.590  0.8653 -0.4640  2.0854
18561THY    HP451331   7.354   3.524   3.712 -0.9470  1.4579  0.0126
18561THY    CP351332   7.087   3.644   3.764  0.7108 -0.6173  0.2926
18561THY    HP551333   7.069   3.666   3.659  2.0759 -0.9305  0.0057
18561THY    HP651334   7.008   3.696   3.820  0.8072  0.4803 -0.6877
18561THY    HP751335   7.067   3.538   3.782 -2.4984  1.7045  1.1284
18561THY    CA351336   7.263   3.912   3.686  0.7874  0.2211  0.2861
18561THY    HA351337   7.272   3.863   3.589 -2.3833  0.0100 -0.0911
18561THY    CA451338   7.273   4.050   3.691 -1.1389  0.5838  0.5403
18561THY    HA451339   7.303   4.111   3.606  0.2983  1.0396  0.5125
18561THY    CA551340   7.260   4.116   3.811  0.4331 -0.1330  0.3014
18561THY    CM151341   7.276   4.267   3.827 -0.0902  0.7809 -0.3005
18561THY    HM151342   7.240   4.292   3.927  1.7418  1.2739  0.5846
18561THY    HM251343   7.224   4.318   3.745 -1.8974  0.2874 -2.7768
18561THY    HM351344   7.384   4.288   3.825 -0.0247 -0.2300 -0.7184
18561THY    CA651345   7.238   4.037   3.928  0.9720  0.0734  0.1445
18561THY    HA651346   7.240   4.086   4.025 -0.6877 -0.3751  1.1756
18562THY      O51347   2.429   1.674   5.645  0.1380 -0.3069  0.2424
18562THY     HO51348   2.357   1.695   5.583 -0.0856 -0.0329  0.2914
18562THY    CA151349   2.522   1.766   5.652  0.8124  0.3567  0.5855
18562THY    CA251350   2.619   1.764   5.764  0.4662 -0.3344 -0.1722
18562THY    CP151351   2.631   1.659   5.871 -0.0999  0.1369  0.4507
18562THY    HP151352   2.558   1.580   5.851  1.5943 -0.4647 -1.0153
18562THY    CP251353   2.604   1.714   6.008  0.4777 -0.6667  0.3803
18562THY    HP251354   2.671   1.794   6.043 -0.4350  2.1451  0.0529
18562THY    HP351355   2.595   1.635   6.084  0.1080 -0.7502  0.3417
18562THY    HP451356   2.508   1.766   6.011  1.1756 -0.3156  1.7163
18562THY    CP351357   2.771   1.594   5.867 -0.2698 -0.0673  0.4550
18562THY    HP551358   2.773   1.507   5.800  0.4323  0.1940  0.2642
18562THY    HP651359   2.787   1.548   5.965  2.6127 -1.3629 -1.5690
18562THY    HP751360   2.847   1.669   5.844  1.7108  1.0065 -1.1266
18562THY    CA351361   2.707   1.871   5.764  0.2123 -0.3253  0.1884
18562THY    HA351362   2.779   1.874   5.845  0.1509 -0.0351 -2.7578
18562THY    CA451363   2.694   1.978   5.675 -0.1847  0.0904 -0.5991
18562THY    HA451364   2.758   2.064   5.688  0.3468 -0.5733 -0.8847
18562THY    CA551365   2.603   1.969   5.567 -0.0767  0.8267 -0.5153
18562THY    CM151366   2.608   2.077   5.463 -0.3395 -1.2503 -1.1230
18562THY    HM151367   2.569   2.170   5.506  0.2824 -3.1021  0.0476
18562THY    HM251368   2.551   2.049   5.374  0.9881 -2.6368  0.3919
18562THY    HM351369   2.715   2.087   5.438 -0.3645 -0.7284  0.8721
18562THY    CA651370   2.511   1.864   5.559 -0.9326  0.2484 -0.4167
18562THY    HA651371   2.429   1.860   5.487 -0.1687 -0.5911 -1.6833
18563THY      O51372   7.064   1.434   2.587  0.7246 -0.2176 -1.0360
18563THY     HO51373   7.041   1.342   2.562  0.3522 -1.6502 -0.5817
18563THY    CA151374   7.005   1.499   2.487  0.2019  1.3027 -0.2608
18563THY    CA251375   6.983   1.639   2.483 -0.3839 -0.6132  0.0382
18563THY    CP151376   7.014   1.721   2.611  0.1295  0.1265  0.3538
18563THY    HP151377   7.049   1.654   2.690 -1.8165  1.9633  1.3821
18563THY    CP251378   6.882   1.776   2.670  0.4327  0.2433  0.1513
18563THY    HP251379   6.912   1.848   2.747  2.6249 -1.0012  0.6593
18563THY    HP351380   6.824   1.695   2.715 -1.5304 -0.8011  0.9009
18563THY    HP451381   6.826   1.836   2.597  1.2081 -0.8245 -0.3914
18563THY    CP351382   7.105   1.835   2.576 -0.8161  0.1430  0.6174
18563THY    HP551383   7.047   1.906   2.515  1.0675 -2.5946 -0.0242
18563THY    HP651384   7.185   1.795   2.513 -0.2517  1.3682 -0.2416
18563THY    HP751385   7.161   1.874   2.661  0.3942  1.2442 -3.0471
18563THY    CA351386   6.928   1.693   2.366  0.6121  0.9783 -0.0747
18563THY    HA351387   6.885   1.793   2.364 -0.3708 -0.4517 -0.4964
18563THY    CA451388   6.900   1.611   2.254 -0.0144 -0.0391 -0.2437
18563THY    HA451389   6.834   1.650   2.178 -1.6410  0.6523 -1.5511
18563THY    CA551390   6.936   1.476   2.258 -0.3649  0.7463  0.4620
18563THY    CM151391   6.888   1.391   2.145  0.1674  0.2362  0.0873
18563THY    HM151392   6.875   1.285   2.171  1.0940  0.2058 -0.0453
18563THY    HM251393   6.962   1.407   2.066  2.3569  2.0946 -0.2437
18563THY    HM351394   6.786   1.411   2.111 -0.9324  1.5721 -2.7136
18563THY    CA651395   6.994   1.420   2.371  0.7922  0.1021 -0.8972
18563THY    HA651396   6.997   1.312   2.371  1.7688  1.6165 -0.8922
18564THY      O51397   8.688   2.947   5.874  0.0290  0.4392  0.0349
18564THY     HO51398   8.597   2.971   5.900 -0.5408 -1.5547  0.1881
18564THY    CA151399   8.686   2.819   5.836  0.3889 -1.0210 -0.8911
18564THY    CA251400   8.800   2.742   5.804 -0.6960  0.5226  0.2469
18564THY    CP151401   8.938   2.804   5.801  0.1903 -0.0141 -0.6658
18564THY    HP151402   8.942   2.910   5.830  1.0258  2.1633 -1.2541
18564THY    CP251403   9.002   2.797   5.671  0.4050  1.5087 -0.5504
18564THY    HP251404   9.022   2.696   5.632  0.9187  0.2378  0.0278
18564THY    HP351405   9.093   2.858   5.674  0.8233  0.0798 -1.0715
18564THY    HP451406   8.943   2.855   5.600  2.4792 -0.1725 -0.3606
18564THY    CP351407   9.026   2.731   5.903  0.6635 -0.1268 -0.3970
18564THY    HP551408   9.045   2.626   5.878 -1.2715 -1.5521 -0.4620
18564THY    HP651409   8.978   2.748   6.000 -0.3867 -0.4676 -1.2854
18564THY    HP751410   9.122   2.782   5.909  0.8172 -1.0371 -0.5676
18564THY    CA351411   8.782   2.614   5.748 -0.3914  0.1919 -0.0878
18564THY    HA351412   8.863   2.553   5.710 -1.9594  0.5581 -2.5428
18564THY    CA451413   8.651   2.561   5.754  0.1388  0.0178 -0.2529
18564THY    HA451414   8.640   2.456   5.729  1.2960  1.8680 -0.8652
18564THY    CA551415   8.544   2.626   5.807  0.2351 -0.3173 -0.4252
18564THY    CM151416   8.412   2.553   5.826  0.1409  0.7899 -0.5536
18564THY    HM151417   8.340   2.605   5.763  0.9383 -0.3963 -0.8373
18564THY    HM251418   8.371   2.547   5.927 -0.7605  0.4395 -0.4839
18564THY    HM351419   8.422   2.450   5.791  0.0643 -1.1976  0.0692
18564THY    CA651420   8.560   2.757   5.851  0.3615  0.0308 -0.3331
18564THY    HA651421   8.478   2.816   5.890  0.1709  0.8232 -1.1099
18565THY      O51422   5.697   4.270   7.040  0.3056  0.4091  0.0253
18565THY     HO51423   5.645   4.188   7.043 -2.0870  1.0970  1.4769
18565THY    CA151424   5.598   4.364   7.020 -0.3568 -0.3386 -0.0569
18565THY    CA251425   5.623   4.493   6.965 -0.4899  0.7660 -0.9067
18565THY    CP151426   5.768   4.522   6.914 -0.3208 -0.1812  0.3384
18565THY    HP151427   5.817   4.433   6.873  2.0172 -2.7939  2.6343
18565THY    CP251428   5.857   4.587   7.024 -0.0060 -1.1968 -0.1014
18565THY    HP251429   5.868   4.520   7.110 -2.4362 -0.0670  0.8321
18565THY    HP351430   5.811   4.679   7.062 -2.0403  0.6251 -1.7446
18565THY    HP451431   5.955   4.616   6.984  0.3174 -0.1876  0.2359
18565THY    CP351432   5.771   4.620   6.789  0.1465  0.0838  0.2846
18565THY    HP551433   5.722   4.575   6.702 -1.4568 -0.0054  2.0873
18565THY    HP651434   5.869   4.640   6.744 -0.8863 -2.1855  0.5371
18565THY    HP751435   5.738   4.724   6.802 -1.7092 -1.0886 -0.1041
18565THY    CA351436   5.530   4.597   6.987  0.9189  0.6395 -0.1834
18565THY    HA351437   5.543   4.695   6.942  0.5303 -0.0799 -0.4509
18565THY    CA451438   5.401   4.562   7.028 -0.6069 -0.2464 -0.5414
18565THY    HA451439   5.328   4.642   7.017  0.4527 -1.0604  0.3465
18565THY    CA551440   5.376   4.430   7.074 -0.1116 -0.3517  1.1122
18565THY    CM151441   5.239   4.397   7.118  0.3893 -0.5660  0.4445
18565THY    HM151442   5.178   4.372   7.031  1.4720 -1.4229  0.7293
18565THY    HM251443   5.200   4.482   7.175  0.8949 -1.5507  1.3501
18565THY    HM351444   5.223   4.313   7.187 -2.4475 -1.7379 -0.0822
18565THY    CA651445   5.475   4.335   7.073 -0.4979 -1.0480  0.5013
18565THY    HA651446   5.453   4.241   7.122 -0.3203  1.9768  1.9405
18566THY      O51447   2.553   9.182   3.095 -0.6947 -0.1731 -0.0429
18566THY     HO51448   2.576   9.250   3.029 -1.3054 -1.2678 -0.8595
18566THY    CA151449   2.580   9.233   3.220  0.6247 -0.2977 -0.4850
18566THY    CA251450   2.483   9.237   3.323  0.3651 -0.3261 -0.1681
18566THY    CP151451   2.342   9.189   3.299  0.3754  0.0560  0.1473
18566THY    HP151452   2.333   9.159   3.194  1.3935  0.0233 -0.0598
18566THY    CP251453   2.262   9.313   3.332  0.3823  0.0699  0.4237
18566THY    HP251454   2.161   9.292   3.293  0.2001  0.7323  0.0391
18566THY    HP351455   2.298   9.406   3.288 -0.7980 -0.6024  0.5898
18566THY    HP451456   2.265   9.329   3.440  1.4985  0.0736  0.2436
18566THY    CP351457   2.318   9.068   3.389  0.1308  0.0456  1.3363
18566THY    HP551458   2.210   9.053   3.397  0.1386 -0.4330  1.0148
18566THY    HP651459   2.353   9.087   3.491  0.0262  0.6247 -1.2528
18566THY    HP751460   2.363   8.975   3.352  0.7448 -0.7670  1.9451
18566THY    CA351461   2.531   9.289   3.447 -0.4056 -0.1333  0.3837
18566THY    HA351462   2.457   9.289   3.527 -0.8717 -0.5382  1.4626
18566THY    CA451463   2.662   9.337   3.465 -0.2158  0.1217  0.0941
18566THY    HA451464   2.697   9.381   3.558  0.2561 -0.7848  1.7009
18566THY    CA551465   2.747   9.338   3.356 -0.2369 -0.2345  1.1725
18566THY    CM151466   2.886   9.380   3.370  0.1796 -0.0835 -1.0539
18566THY    HM151467   2.903   9.486   3.347  1.9465 -1.0713 -1.5204
18566THY    HM251468   2.949   9.321   3.304  4.0086  2.1398  0.1910
18566THY    HM351469   2.905   9.376   3.478 -1.4239  0.5619  3.0824
18566THY    CA651470   2.707   9.287   3.236  0.4966  0.9011  0.1064
18566THY    HA651471   2.771   9.282   3.148  0.5040  0.8599  0.8159
18567THY      O51472   8.350   0.839   4.397  0.3081 -0.3385  0.0725
18567THY     HO51473   8.392   0.814   4.313 -2.2562 -0.9844 -2.6204
18567THY    CA151474   8.426   0.936   4.450  0.2312  0.0566 -0.0422
18567THY    CA251475   8.423   0.968   4.588  0.0754  0.1500 -0.2255
18567THY    CP151476   8.347   0.880   4.688 -1.0044  0.5220  0.4008
18567THY    HP151477   8.318   0.783   4.646 -1.9401  3.6088 -0.7793
18567THY    CP251478   8.206   0.935   4.723 -0.6617 -0.0339 -0.4836
18567THY    HP251479   8.143   0.864   4.777 -0.7472  0.6350  0.0908
18567THY    HP351480   8.153   0.950   4.628  1.1261 -1.1601 -1.0086
18567THY    HP451481   8.207   1.027   4.783  1.4505 -0.1542 -0.3723
18567THY    CP351482   8.424   0.847   4.813  0.0916  0.0253  0.5634
18567THY    HP551483   8.520   0.809   4.776  0.0751 -1.2504  1.6849
18567THY    HP651484   8.384   0.771   4.881  2.1530 -0.7030 -1.2674
18567THY    HP751485   8.433   0.934   4.879 -2.0054 -0.1167  0.9581
18567THY    CA351486   8.499   1.087   4.626 -0.1675 -0.1588  0.4082
18567THY    HA351487   8.497   1.121   4.729 -0.4172  0.2154 -0.7310
18567THY    CA451488   8.570   1.160   4.532  0.8410 -0.5095  0.0745
18567THY    HA451489   8.643   1.235   4.561 -1.2044  2.1906  1.1949
18567THY    CA551490   8.557   1.129   4.399 -0.2319  0.3967 -0.4539
18567THY    CM151491   8.638   1.196   4.295 -0.9370 -0.1954 -0.3991
18567THY    HM151492   8.724   1.136   4.262 -0.6639  0.1731 -0.2128
18567THY    HM251493   8.680   1.282   4.349 -0.0090 -0.4305 -0.6932
18567THY    HM351494   8.574   1.235   4.215  1.2890 -0.8094  2.3222
18567THY    CA651495   8.491   1.017   4.361  0.2244  0.0098  0.1957
18567THY    HA651496   8.498   0.991   4.256 -2.3605 -0.7414  2.1491
18568THY      O51497   8.481   8.737   3.280 -0.0224 -0.6926 -0.0833
18568THY     HO51498   8.520   8.753   3.368 -3.4847  1.0011  0.2422
18568THY    CA151499   8.446   8.862   3.239 -1.2835 -0.6531 -0.5044
18568THY    CA251500   8.343   8.894   3.152  0.1855 -0.3330 -0.1075
18568THY    CP151501   8.241   8.796   3.108 -0.0891  0.3170  0.0445
18568THY    HP151502   8.272   8.691   3.110 -1.7206  1.5482 -0.4600
18568THY    CP251503   8.224   8.820   2.955  0.0850  0.0856  0.3111
18568THY    HP251504   8.320   8.839   2.905  0.5757  0.4044 -1.2035
18568THY    HP351505   8.157   8.907   2.946  0.4119 -0.1401  0.5409
18568THY    HP451506   8.171   8.735   2.911 -1.7374  1.0778  0.8746
18568THY    CP351507   8.106   8.810   3.183  0.4615 -0.7261  0.1615
18568THY    HP551508   8.062   8.908   3.164 -2.1186  0.0488 -0.7726
18568THY    HP651509   8.120   8.792   3.290 -0.2432 -0.7048 -0.2695
18568THY    HP751510   8.038   8.737   3.139 -0.7829  3.3792 -1.4697
18568THY    CA351511   8.333   9.031   3.112 -0.0919  0.2910  0.3355
18568THY    HA351512   8.255   9.054   3.040 -0.8301  0.7760 -0.5486
18568THY    CA451513   8.402   9.129   3.178 -0.3098  0.2531 -0.1690
18568THY    HA451514   8.374   9.231   3.157  0.8870  2.0490  0.5791
18568THY    CA551515   8.511   9.089   3.264 -0.3934 -0.1673 -0.5358
18568THY    CM151516   8.585   9.198   3.336  0.1779  0.4528 -0.2032
18568THY    HM151517   8.559   9.297   3.298  0.0915 -2.3265 -1.1934
18568THY    HM251518   8.693   9.194   3.318  0.0326 -0.5147 -0.0969
18568THY    HM351519   8.577   9.192   3.445 -0.5006  0.3600 -1.5629
18568THY    CA651520   8.534   8.959   3.289  0.3642  0.3887  0.2427
18568THY    HA651521   8.613   8.943   3.362  0.4010  0.0362 -1.2525
18569THY      O51522   8.136   4.709   4.984 -0.0110 -0.0503 -0.5663
18569THY     HO51523   8.056   4.659   4.962 -1.0844  0.4029  0.8938
18569THY    CA151524   8.110   4.831   4.926  0.0022  0.0477 -0.1038
18569THY    CA251525   8.064   4.934   5.006  0.2889 -0.0434  0.1392
18569THY    CP151526   8.040   4.912   5.157  0.0467 -0.0437  0.7965
18569THY    HP151527   8.073   4.814   5.194  3.0758  0.4162  1.8929
18569THY    CP251528   7.894   4.910   5.190 -0.3651  0.0352  0.4609
18569THY    HP251529   7.843   5.001   5.156  1.6313 -0.8006  1.3173
18569THY    HP351530   7.878   4.885   5.296 -0.9306 -0.1658 -0.0614
18569THY    HP451531   7.862   4.823   5.132 -1.2092  1.0653  0.0566
18569THY    CP351532   8.104   5.029   5.239 -0.2201 -0.0897  0.0722
18569THY    HP551533   8.091   5.012   5.347 -0.4585  0.1316  1.4658
18569THY    HP651534   8.068   5.132   5.228 -0.4962  2.0394  0.2687
18569THY    HP751535   8.212   5.025   5.225 -0.4444 -1.8733 -0.4821
18569THY    CA351536   8.045   5.057   4.947  0.0503 -0.2152 -0.0789
18569THY    HA351537   8.023   5.145   5.007  2.4792  2.0118 -0.8630
18569THY    CA451538   8.057   5.071   4.809 -0.5512 -0.0899 -0.1745
18569THY    HA451539   8.033   5.170   4.769 -4.2501  1.9127 -0.0914
18569THY    CA551540   8.106   4.965   4.731 -1.1535  0.1929 -0.6543
18569THY    CM151541   8.137   5.002   4.585 -0.3427  0.6999 -0.5713
18569THY    HM151542   8.195   5.095   4.586  0.2993 -2.7788 -0.7876
18569THY    HM251543   8.049   5.032   4.527  1.2088 -2.4883 -1.6418
18569THY    HM351544   8.195   4.922   4.536  1.0943  2.9198 -0.9594
18569THY    CA651545   8.139   4.847   4.793 -0.5979 -0.4124 -0.3240
18569THY    HA651546   8.192   4.771   4.736 -0.6585  1.6888 -2.0515
18570THY      O51547   6.067   7.183   5.079  0.0917  0.0332  0.5678
18570THY     HO51548   6.076   7.257   5.016 -0.1353  2.7549  3.1200
18570THY    CA151549   6.053   7.236   5.208  0.7259 -0.1710  0.0611
18570THY    CA251550   6.010   7.164   5.320  0.0434  0.1528 -0.1420
18570THY    CP151551   5.964   7.018   5.309 -0.1896  0.0574  0.2045
18570THY    HP151552   5.924   6.990   5.210  0.9030  0.1608 -1.9768
18570THY    CP251553   5.868   6.964   5.422 -0.1111  0.7770 -0.5555
18570THY    HP251554   5.817   6.872   5.392  0.4476  1.6331 -1.1603
18570THY    HP351555   5.789   7.039   5.435 -1.0696 -0.2285 -1.3518
18570THY    HP451556   5.924   6.935   5.512 -0.6473  0.5262 -2.5413
18570THY    CP351557   6.100   6.930   5.329  0.7101 -0.9391  0.4273
18570THY    HP551558   6.145   6.963   5.424 -0.1079 -0.3898  0.0054
18570THY    HP651559   6.169   6.951   5.247 -0.3757 -2.2545 -0.9283
18570THY    HP751560   6.080   6.823   5.343 -0.5710 -0.6543  0.6817
18570THY    CA351561   6.005   7.235   5.440 -0.3003 -0.4724 -0.2966
18570THY    HA351562   5.979   7.189   5.536  0.4196  0.3401  0.9395
18570THY    CA451563   6.025   7.373   5.446  0.1036 -0.3225 -0.0075
18570THY    HA451564   6.003   7.422   5.541  2.3908  0.8155 -0.9891
18570THY    CA551565   6.075   7.441   5.338  0.1797 -0.3463  0.6857
18570THY    CM151566   6.112   7.583   5.343 -0.1442  0.5096  0.3340
18570THY    HM151567   6.125   7.606   5.237 -0.3022  0.3824 -0.1628
18570THY    HM251568   6.209   7.601   5.390 -1.0697  2.0137  1.6682
18570THY    HM351569   6.029   7.646   5.380 -1.4183 -1.7663  0.0900
18570THY    CA651570   6.091   7.367   5.218 -0.0523  0.7140 -0.5971
18570THY    HA651571   6.134   7.423   5.136 -1.7592 -0.1308 -0.4591
18571THY      O51572   7.175   3.991   4.316  0.1861  0.1784 -0.2250
18571THY     HO51573   7.234   3.998   4.393 -0.1432  0.3915  0.2645
18571THY    CA151574   7.131   4.118   4.287  0.2730  0.0822 -0.2143
18571THY    CA251575   7.006   4.142   4.220  0.1931 -0.1197  0.5786
18571THY    CP151576   6.924   4.024   4.174 -0.4467  0.5324  0.3927
18571THY    HP151577   6.981   3.933   4.192  0.4745 -0.6907  0.6926
18571THY    CP251578   6.883   4.028   4.025 -0.3284 -0.7407 -0.0228
18571THY    HP251579   6.837   3.934   3.993 -0.5541  1.3666 -0.6834
18571THY    HP351580   6.975   4.031   3.964 -0.2762 -0.6669 -0.1299
18571THY    HP451581   6.824   4.117   4.000 -1.3826  3.9904  0.8600
18571THY    CP351582   6.792   4.030   4.264 -0.1301 -0.0152 -0.2826
18571THY    HP551583   6.728   3.942   4.262 -0.5476  1.1178 -0.0257
18571THY    HP651584   6.726   4.106   4.221 -0.8122  1.3579 -0.0577
18571THY    HP751585   6.820   4.059   4.366  2.4456 -0.5283 -0.6623
18571THY    CA351586   6.966   4.277   4.194 -0.5262 -0.0603  0.1026
18571THY    HA351587   6.887   4.305   4.126  2.0762 -3.1509  0.5771
18571THY    CA451588   7.059   4.380   4.231  0.3705  0.0665  0.5754
18571THY    HA451589   7.039   4.486   4.220 -0.0636 -1.8153  0.3310
18571THY    CA551590   7.178   4.349   4.295 -0.4027 -1.0707  1.0002
18571THY    CM151591   7.261   4.453   4.347  0.7913 -0.1433  0.1559
18571THY    HM151592   7.365   4.433   4.320  0.5564 -0.5242 -0.5976
18571THY    HM251593   7.246   4.471   4.454 -0.6960 -0.3020  0.0454
18571THY    HM351594   7.238   4.546   4.292 -2.7198  0.1728 -0.3843
18571THY    CA651595   7.214   4.216   4.327  0.1034  0.4806 -0.4700
18571THY    HA651596   7.313   4.191   4.365 -0.0480  1.4369  0.3155
18572THY      O51597   4.157   6.274   6.270 -0.1428  0.4197  0.1821
18572THY     HO51598   4.073   6.231   6.294  0.5030  0.0484 -1.3493
18572THY    CA151599   4.138   6.331   6.150  0.0118  0.0226  0.1786
18572THY    CA251600   4.243   6.387   6.072 -0.3027  0.2538 -0.2473
18572THY    CP151601   4.388   6.369   6.119  0.3190  0.7599 -0.5164
18572THY    HP151602   4.394   6.316   6.215  1.6961  0.6699 -0.5566
18572THY    CP251603   4.457   6.510   6.138 -0.4007 -0.5031 -0.1274
18572THY    HP251604   4.429   6.569   6.226 -0.5001 -0.3874 -0.3486
18572THY    HP351605   4.461   6.572   6.047 -1.0981 -0.6454 -0.2743
18572THY    HP451606   4.561   6.485   6.159 -1.2141  1.5876 -2.1363
18572THY    CP351607   4.459   6.298   6.011  0.1302  0.9503  0.0428
18572THY    HP551608   4.408   6.203   5.994  1.0902  2.2600 -0.7369
18572THY    HP651609   4.563   6.270   6.031  0.1356 -1.1015 -1.7377
18572THY    HP751610   4.457   6.359   5.919  0.3547 -0.0582 -1.4291
18572THY    CA351611   4.213   6.452   5.954 -0.2041 -0.1083  0.1405
18572THY    HA351612   4.292   6.490   5.891 -0.5864 -1.2312 -0.8580
18572THY    CA451613   4.081   6.463   5.912 -0.4862 -0.3047  0.0839
18572THY    HA451614   4.049   6.503   5.816 -1.6189  0.2321  0.5151
18572THY    CA551615   3.978   6.417   5.990 -0.3412 -0.4022 -0.1139
18572THY    CM151616   3.839   6.405   5.934 -0.4974  0.4848  0.2427
18572THY    HM151617   3.819   6.488   5.864 -0.2211  1.1875  0.9210
18572THY    HM251618   3.762   6.419   6.011 -1.8081 -0.8448  0.6501
18572THY    HM351619   3.821   6.308   5.887 -0.6964 -1.6704  1.2664
18572THY    CA651620   4.004   6.342   6.109  0.1826  0.0607 -0.2329
18572THY    HA651621   3.921   6.301   6.166 -1.7128 -1.9514  0.6119
18573THY      O51622   5.496   4.314   7.834 -0.2789 -0.2216 -0.0993
18573THY     HO51623   5.563   4.314   7.904  1.6456 -1.9662  0.8706
18573THY    CA151624   5.547   4.268   7.715  0.3313 -0.2922  0.4398
18573THY    CA251625   5.684   4.282   7.676  0.0087  0.4880  0.6295
18573THY    CP151626   5.791   4.322   7.778  0.0214 -0.3380 -0.8474
18573THY    HP151627   5.749   4.380   7.861 -1.2159  0.0001 -2.1703
18573THY    CP251628   5.913   4.395   7.724  0.0067 -0.1493 -0.1190
18573THY    HP251629   5.892   4.492   7.678 -0.1441 -0.4992 -0.3145
18573THY    HP351630   5.964   4.339   7.644 -0.6317 -1.6385  1.3397
18573THY    HP451631   5.990   4.417   7.799  1.3381 -1.7961  1.1493
18573THY    CP351632   5.836   4.191   7.843  0.5714  0.1956  0.8805
18573THY    HP551633   5.874   4.124   7.765 -1.8931 -1.2055  1.0188
18573THY    HP651634   5.755   4.131   7.885 -0.5744 -1.4742  1.1821
18573THY    HP751635   5.912   4.212   7.919 -1.6560  3.0588 -0.7341
18573THY    CA351636   5.710   4.248   7.537  0.6191 -0.0636 -0.2304
18573THY    HA351637   5.808   4.259   7.493  0.8797  0.5101 -0.2249
18573THY    CA451638   5.604   4.209   7.450 -0.7220  0.0649  0.1752
18573THY    HA451639   5.628   4.199   7.344  1.2588  0.5813 -0.9814
18573THY    CA551640   5.479   4.179   7.498  0.1844  0.4943  0.1397
18573THY    CM151641   5.364   4.143   7.408 -0.0323  0.2469  0.4695
18573THY    HM151642   5.395   4.145   7.303  0.5719  0.3908 -0.4889
18573THY    HM251643   5.273   4.200   7.429 -2.0536  0.4340 -2.5477
18573THY    HM351644   5.328   4.040   7.421  0.9132 -0.0867  0.0837
18573THY    CA651645   5.452   4.216   7.632  0.6346 -0.3884 -0.2678
18573THY    HA651646   5.349   4.213   7.665  0.9201  0.5759  0.0964
18574THY      O51647   7.945   3.425   7.225 -0.2370 -0.4743  0.0862
18574THY     HO51648   7.868   3.477   7.254 -0.5976 -0.5800 -0.3825
18574THY    CA151649   8.004   3.387   7.340 -0.5665  0.0294  1.1592
18574THY    CA251650   8.131   3.319   7.349 -1.0183  0.7982  0.2140
18574THY    CP151651   8.201   3.262   7.220  0.0483 -0.1784 -0.2514
18574THY    HP151652   8.140   3.274   7.130  0.1319 -0.1182  0.7097
18574THY    CP251653   8.253   3.112   7.230 -0.1454 -0.6155 -0.4856
18574THY    HP251654   8.324   3.085   7.152  2.0750  1.4847 -1.0044
18574THY    HP351655   8.172   3.038   7.234  0.0750 -0.6511 -0.7264
18574THY    HP451656   8.310   3.099   7.323 -2.4838  2.0069  4.7516
18574THY    CP351657   8.330   3.345   7.194  0.3546 -0.1033 -0.1387
18574THY    HP551658   8.363   3.324   7.092  2.5753  0.4833  0.2576
18574THY    HP651659   8.410   3.315   7.262  0.4534 -0.1185  0.0881
18574THY    HP751660   8.307   3.452   7.201 -0.2836  3.3450 -0.3848
18574THY    CA351661   8.179   3.276   7.472 -0.5319 -0.3998  0.4344
18574THY    HA351662   8.266   3.213   7.485 -0.3788 -0.2997  0.6635
18574THY    CA451663   8.117   3.322   7.585 -0.2774 -0.8617  0.2081
18574THY    HA451664   8.165   3.297   7.679  1.8665 -1.2664  2.4004
18574THY    CA551665   7.994   3.391   7.582 -0.5281 -0.2603 -0.4836
18574THY    CM151666   7.926   3.425   7.713  0.1096  0.5714  0.5660
18574THY    HM151667   7.984   3.395   7.801  0.4710 -0.6784 -2.8807
18574THY    HM251668   7.836   3.362   7.723 -0.9810 -0.5485  1.8817
18574THY    HM351669   7.879   3.523   7.715 -0.6016 -0.1668  0.2546
18574THY    CA651670   7.937   3.415   7.459 -0.1031 -0.4784 -0.4360
18574THY    HA651671   7.835   3.454   7.459 -0.1322 -1.6965 -0.4726
18575THY      O51672   8.485   7.327   6.077 -0.1309  0.0583  0.9369
18575THY     HO51673   8.580   7.328   6.058 -0.2090 -0.3493  1.0429
18575THY    CA151674   8.467   7.359   6.204  0.3727  0.6620 -0.0099
18575THY    CA251675   8.358   7.307   6.270  0.6163 -0.3566  0.4871
18575THY    CP151676   8.250   7.229   6.191 -0.1467 -0.2105 -0.0607
18575THY    HP151677   8.300   7.180   6.107 -1.1878  0.2515 -2.0204
18575THY    CP251678   8.147   7.329   6.148  0.2878 -0.4090 -0.1123
18575THY    HP251679   8.066   7.272   6.102  0.6204 -1.3053  0.1154
18575THY    HP351680   8.182   7.392   6.065 -0.5696 -1.6545 -1.2150
18575THY    HP451681   8.111   7.387   6.234 -0.2933 -2.0123  2.0505
18575THY    CP351682   8.186   7.110   6.270  0.1248  0.4848 -0.8668
18575THY    HP551683   8.139   7.035   6.206  0.1362 -0.1963 -0.3022
18575THY    HP651684   8.104   7.149   6.332 -1.0712 -1.7253  0.3201
18575THY    HP751685   8.265   7.077   6.339  1.1442 -0.6711 -0.9148
18575THY    CA351686   8.339   7.345   6.406 -0.3129  0.4697 -0.0203
18575THY    HA351687   8.260   7.306   6.470 -0.1150  0.3627 -0.5983
18575THY    CA451688   8.434   7.419   6.475  0.3368  0.8324 -0.2863
18575THY    HA451689   8.416   7.437   6.580 -0.2700  0.7140 -0.1770
18575THY    CA551690   8.549   7.457   6.404  0.3550  0.6537 -0.1223
18575THY    CM151691   8.658   7.532   6.469 -0.6496 -0.3732  0.0052
18575THY    HM151692   8.624   7.634   6.491 -0.3069 -1.7796  0.4462
18575THY    HM251693   8.749   7.519   6.410  1.0010  1.8096  0.8761
18575THY    HM351694   8.682   7.485   6.565 -0.0930 -0.5413 -0.0609
18575THY    CA651695   8.559   7.440   6.266  0.4711 -0.0917  0.2221
18575THY    HA651696   8.647   7.475   6.213 -0.1135 -2.4100 -1.5694
18576THY      O51697   8.291   7.188   6.710  0.2636  0.0191 -0.1292
18576THY     HO51698   8.354   7.239   6.763 -1.6018  2.7602 -0.4622
18576THY    CA151699   8.322   7.067   6.762  0.3492 -0.4220  0.0551
18576THY    CA251700   8.245   6.954   6.724 -0.1833  0.1653 -0.1972
18576THY    CP151701   8.124   6.959   6.628  0.3314 -0.5320  0.3533
18576THY    HP151702   8.113   7.050   6.569 -1.3286  0.8364  1.1062
18576THY    CP251703   7.996   6.966   6.712  0.1871 -0.2114 -0.4029
18576THY    HP251704   7.911   6.909   6.674  0.1293 -0.1491 -0.3580
18576THY    HP351705   7.959   7.070   6.709  1.6267 -0.1840  0.1337
18576THY    HP451706   8.012   6.924   6.812 -1.7777 -0.0528 -0.8475
18576THY    CP351707   8.110   6.839   6.533 -0.1954  0.4022  0.5071
18576THY    HP551708   8.202   6.788   6.504  0.0360  0.4842  0.8762
18576THY    HP651709   8.073   6.879   6.438  1.4824  0.2963  1.8871
18576THY    HP751710   8.037   6.766   6.571 -0.6437 -2.6650 -0.7910
18576THY    CA351711   8.292   6.828   6.770 -0.5451 -0.3867 -0.6998
18576THY    HA351712   8.241   6.737   6.739  0.8846 -0.2211 -1.5898
18576THY    CA451713   8.403   6.829   6.847 -1.5209 -0.1808 -0.0010
18576THY    HA451714   8.449   6.735   6.875 -0.6911  0.5302  0.5938
18576THY    CA551715   8.474   6.938   6.888  0.2853  0.2419 -0.3550
18576THY    CM151716   8.589   6.929   6.994 -0.0975  0.1691  0.0423
18576THY    HM151717   8.663   7.010   6.994 -1.0044  0.4030  0.8742
18576THY    HM251718   8.652   6.840   6.979 -1.0266 -1.9074 -0.3310
18576THY    HM351719   8.548   6.917   7.094  0.6510  0.5687  0.6914
18576THY    CA651720   8.432   7.059   6.844  0.0355 -0.3528 -0.1171
18576THY    HA651721   8.491   7.147   6.869  0.3346  2.6966 -1.0642
18577THY      O51722   2.355   5.752   3.349  0.2621 -0.2289  0.0289
18577THY     HO51723   2.356   5.690   3.274  0.9360 -0.2717  0.0811
18577THY    CA151724   2.273   5.696   3.440  0.2112 -0.9461 -0.4193
18577THY    CA251725   2.234   5.768   3.557 -0.1654 -0.2200 -0.4988
18577THY    CP151726   2.291   5.908   3.578 -0.7647 -0.3437 -0.6634
18577THY    HP151727   2.379   5.922   3.515  1.7654  3.0340 -0.0864
18577THY    CP251728   2.355   5.927   3.720  0.2572  0.0604  0.6622
18577THY    HP251729   2.291   5.899   3.804  0.9627  0.4149  0.0798
18577THY    HP351730   2.372   6.035   3.728  0.1778 -3.2752  1.0096
18577THY    HP451731   2.457   5.889   3.737  0.1685  0.1587  0.4656
18577THY    CP351732   2.193   6.025   3.557 -0.1599 -0.3036  0.0878
18577THY    HP551733   2.133   6.017   3.465 -0.2206 -0.2251 -0.3860
18577THY    HP651734   2.261   6.110   3.557 -0.1459  0.9899  0.0831
18577THY    HP751735   2.131   6.029   3.647  0.4482  0.4084 -3.4356
18577THY    CA351736   2.144   5.707   3.646 -0.6548  0.3978 -0.1414
18577THY    HA351737   2.106   5.749   3.738 -0.2097  2.1972 -3.3528
18577THY    CA451738   2.103   5.579   3.628  0.2059 -0.0154 -0.1776
18577THY    HA451739   2.032   5.533   3.696 -0.3353 -0.5898 -0.2062
18577THY    CA551740   2.142   5.511   3.519 -0.4428  0.5594  0.0889
18577THY    CM151741   2.116   5.364   3.500 -0.5810  0.3813  0.0864
18577THY    HM151742   2.184   5.313   3.431 -1.2293  0.4300 -0.8734
18577THY    HM251743   2.025   5.344   3.441  0.1783 -0.0769 -2.2238
18577THY    HM351744   2.101   5.318   3.598  0.6884 -0.0372 -1.2671
18577THY    CA651745   2.227   5.566   3.417  0.6275  0.1886  0.0347
18577THY    HA651746   2.248   5.510   3.326  1.5042  1.0288 -1.0476
18578THY      O51747   8.964   5.984   6.768  0.0719 -0.0191  0.2386
18578THY     HO51748   9.015   5.999   6.849  0.4815  0.0192 -1.2327
18578THY    CA151749   8.916   5.857   6.780 -0.4343  0.4736  0.5154
18578THY    CA251750   8.820   5.803   6.692  0.1329  0.1570 -0.8745
18578THY    CP151751   8.753   5.898   6.592  0.2883 -0.5061 -0.1669
18578THY    HP151752   8.746   5.997   6.638  2.2552 -0.4431 -0.0173
18578THY    CP251753   8.602   5.858   6.569 -0.4239  0.2770 -0.8002
18578THY    HP251754   8.555   5.922   6.494 -0.1866  0.5734 -0.2591
18578THY    HP351755   8.552   5.866   6.666 -0.2867  0.2968 -0.0493
18578THY    HP451756   8.586   5.765   6.514 -1.5667 -0.8906  0.0555
18578THY    CP351757   8.821   5.915   6.459  0.7454  0.2329  0.0955
18578THY    HP551758   8.927   5.941   6.464  0.8754  1.6764 -0.6292
18578THY    HP651759   8.768   5.990   6.399  1.2446 -1.2420 -0.6900
18578THY    HP751760   8.813   5.819   6.407 -0.2548 -2.1192  1.3486
18578THY    CA351761   8.796   5.665   6.699  0.5362  0.1772  0.1982
18578THY    HA351762   8.734   5.617   6.624 -1.1300  1.0990  0.8348
18578THY    CA451763   8.853   5.588   6.805  0.4142  0.3781  0.2084
18578THY    HA451764   8.827   5.482   6.808  0.4880  1.6644  0.2124
18578THY    CA551765   8.938   5.649   6.900 -0.3003  0.0425  0.6191
18578THY    CM151766   8.999   5.553   6.998  0.3506 -0.1745  0.0677
18578THY    HM151767   9.100   5.589   7.020  0.0850 -0.3463  0.9450
18578THY    HM251768   9.009   5.451   6.959 -0.1545  2.2080 -0.9580
18578THY    HM351769   8.932   5.538   7.083 -0.0957 -0.5027  0.1880
18578THY    CA651770   8.972   5.781   6.890 -0.1430  0.4079 -0.5686
18578THY    HA651771   9.029   5.833   6.966 -2.5214  0.9047  1.5335
18579THY      O51772   4.273   3.713   7.376 -0.8568  0.4493 -0.3630
18579THY     HO51773   4.290   3.808   7.382  2.5763  0.3210 -0.8176
18579THY    CA151774   4.201   3.669   7.279  0.5329  0.0302  0.5574
18579THY    CA251775   4.213   3.537   7.236 -0.8630 -0.1355  0.1826
18579THY    CP151776   4.288   3.434   7.320  0.3146 -0.5342 -0.5789
18579THY    HP151777   4.307   3.479   7.418  1.5330 -1.2135  0.4336
18579THY    CP251778   4.431   3.404   7.269 -0.5733 -0.3733 -0.2599
18579THY    HP251779   4.489   3.379   7.359 -0.2287 -0.5350 -0.0538
18579THY    HP351780   4.482   3.497   7.240 -0.5476 -0.5471 -0.3286
18579THY    HP451781   4.438   3.334   7.185  3.3526 -0.2931 -0.2097
18579THY    CP351782   4.208   3.308   7.348 -0.4386  0.1636  0.1889
18579THY    HP551783   4.174   3.257   7.257  1.0598 -1.0267  1.2296
18579THY    HP651784   4.125   3.328   7.417 -0.6681  0.4842 -1.7094
18579THY    HP751785   4.265   3.234   7.405  0.2518 -1.9195 -0.9553
18579THY    CA351786   4.148   3.496   7.122  0.3327 -0.0695  0.0360
18579THY    HA351787   4.164   3.396   7.082  0.2936  0.7932 -0.3223
18579THY    CA451788   4.058   3.585   7.054  0.3446  0.1834  0.1110
18579THY    HA451789   3.999   3.535   6.978  0.9814  0.0062 -0.3862
18579THY    CA551790   4.039   3.713   7.103  0.2705 -1.0692  0.2471
18579THY    CM151791   3.916   3.797   7.053 -1.0755 -0.0250 -0.3287
18579THY    HM151792   3.947   3.897   7.021  1.2697 -0.1408 -1.0348
18579THY    HM251793   3.854   3.816   7.141 -1.8218 -0.9311  1.7565
18579THY    HM351794   3.855   3.749   6.976 -1.4941  1.4330 -2.2730
18579THY    CA651795   4.118   3.758   7.210 -0.2417 -0.1534 -0.0740
18579THY    HA651796   4.119   3.864   7.235 -0.1082 -1.5789  0.2830
18580THY      O51797   9.362   8.689   4.055  0.7289 -0.1496 -0.0941
18580THY     HO51798   9.382   8.603   4.096 -1.3711 -0.0136 -0.5583
18580THY    CA151799   9.226   8.676   4.051 -0.2075  0.8534  0.7513
18580THY    CA251800   9.148   8.701   3.939 -0.4358 -0.2449 -0.5874
18580THY    CP151801   9.209   8.727   3.803 -0.1498 -0.1206  0.1658
18580THY    HP151802   9.316   8.708   3.816 -0.1527 -0.6172 -0.2299
18580THY    CP251803   9.189   8.871   3.754 -0.7263 -0.4522 -0.6567
18580THY    HP251804   9.256   8.887   3.669  0.9132  1.0874  1.2489
18580THY    HP351805   9.219   8.940   3.834  0.2119  0.5191 -2.1508
18580THY    HP451806   9.084   8.895   3.735 -0.9555 -0.6591 -1.7965
18580THY    CP351807   9.157   8.627   3.696 -0.5133 -0.3924  0.0900
18580THY    HP551808   9.196   8.660   3.599 -1.3268  0.0005  2.3891
18580THY    HP651809   9.049   8.643   3.689 -0.8132 -1.7965 -2.0981
18580THY    HP751810   9.180   8.521   3.713  3.2986  0.5219  0.9317
18580THY    CA351811   9.007   8.707   3.954  0.5139 -0.2507 -0.3055
18580THY    HA351812   8.934   8.728   3.877 -2.0839  2.2511  0.4408
18580THY    CA451813   8.946   8.680   4.077 -0.8283 -0.5569 -0.7967
18580THY    HA451814   8.839   8.694   4.077 -0.9694 -1.1857 -1.7648
18580THY    CA551815   9.025   8.646   4.186 -0.4441 -0.0412  0.3127
18580THY    CM151816   8.968   8.606   4.323  0.1054  0.2844  0.0685
18580THY    HM151817   8.978   8.689   4.394 -0.9190  0.2960  0.1939
18580THY    HM251818   9.032   8.531   4.371  1.0147  2.1613  1.9403
18580THY    HM351819   8.864   8.572   4.324  0.1140  0.6239  0.0506
18580THY    CA651820   9.162   8.641   4.170  0.3642 -0.0536 -0.4006
18580THY    HA651821   9.230   8.630   4.254  2.2152 -1.2850  1.0683
18581THY      O51822   4.599   2.542   6.583  0.2789  0.7520 -0.3878
18581THY     HO51823   4.550   2.505   6.658 -0.7817  0.4992  0.4489
18581THY    CA151824   4.681   2.642   6.620  0.1499  0.4632 -0.1493
18581THY    CA251825   4.800   2.679   6.541  0.1444  0.0523  0.0332
18581THY    CP151826   4.822   2.615   6.407 -0.6007 -0.3519  0.3566
18581THY    HP151827   4.793   2.510   6.425  1.7501 -1.9259 -0.6456
18581THY    CP251828   4.971   2.605   6.368  0.0146  0.4603  0.1975
18581THY    HP251829   4.999   2.513   6.314  2.0638  0.3323  0.8402
18581THY    HP351830   5.032   2.617   6.459  1.9235 -0.4650 -1.6977
18581THY    HP451831   4.997   2.683   6.296  0.4215 -0.3458 -0.6515
18581THY    CP351832   4.744   2.678   6.297  0.3402  0.3321  0.3715
18581THY    HP551833   4.637   2.669   6.319  0.5477  0.5481 -2.2830
18581THY    HP651834   4.757   2.624   6.203 -1.5291  0.0285  0.3963
18581THY    HP751835   4.770   2.785   6.292  1.5031  3.0590  0.3019
18581THY    CA351836   4.876   2.789   6.584  0.3815 -0.3937 -0.0105
18581THY    HA351837   4.959   2.836   6.533 -1.6707 -2.4496  1.6558
18581THY    CA451838   4.842   2.844   6.712  0.1924 -0.2367  0.2734
18581THY    HA451839   4.899   2.924   6.756 -0.7072 -0.0987  0.8513
18581THY    CA551840   4.725   2.803   6.786  0.8378 -0.4231 -0.2718
18581THY    CM151841   4.686   2.872   6.913  0.2681  0.0220  0.1311
18581THY    HM151842   4.609   2.807   6.956 -1.0905 -0.9061  1.0705
18581THY    HM251843   4.649   2.972   6.887 -0.8442 -3.2780 -1.0223
18581THY    HM351844   4.763   2.886   6.990  1.9391 -1.2652 -1.4713
18581THY    CA651845   4.644   2.700   6.741 -0.0297  0.0886  1.1587
18581THY    HA651846   4.557   2.662   6.794  0.7134 -1.7723 -3.9675
18582THY      O51847   4.325   2.981   6.235 -0.5294 -0.4522 -0.6006
18582THY     HO51848   4.338   3.028   6.151  0.7509 -0.3065 -0.6585
18582THY    CA151849   4.328   3.081   6.327 -0.4930 -0.9265 -0.2784
18582THY    CA251850   4.322   3.066   6.470  0.1732  1.0402  0.1959
18582THY    CP151851   4.304   2.935   6.541 -0.1420  0.2212 -0.0335
18582THY    HP151852   4.275   2.863   6.464  0.5756 -0.5295  0.4623
18582THY    CP251853   4.195   2.934   6.649  0.6323 -0.3083  0.4074
18582THY    HP251854   4.171   2.829   6.670  1.2673 -0.3991  0.2382
18582THY    HP351855   4.101   2.974   6.610 -1.0317  0.2578 -2.6316
18582THY    HP451856   4.224   2.993   6.737  2.5083 -0.5200 -0.1325
18582THY    CP351857   4.429   2.894   6.604  0.0414 -0.5134 -0.0852
18582THY    HP551858   4.430   2.787   6.628 -1.2192  1.6883  0.3337
18582THY    HP651859   4.459   2.952   6.692  1.6225 -1.3753  0.4893
18582THY    HP751860   4.520   2.907   6.544  1.0417  1.3224  1.9727
18582THY    CA351861   4.342   3.185   6.543  0.2373  0.7661  0.4017
18582THY    HA351862   4.343   3.179   6.652 -0.6721  0.7778  0.2088
18582THY    CA451863   4.352   3.307   6.478 -0.8693  0.2437 -0.6214
18582THY    HA451864   4.343   3.396   6.541 -0.1845  2.0483 -1.7746
18582THY    CA551865   4.346   3.316   6.340  0.3652  0.5018 -0.3227
18582THY    CM151866   4.362   3.450   6.272  0.3496 -0.5125 -0.3676
18582THY    HM151867   4.279   3.516   6.300 -1.6373 -1.1127 -2.4773
18582THY    HM251868   4.359   3.446   6.162  0.8091 -0.4905 -2.4621
18582THY    HM351869   4.456   3.499   6.300 -0.1677  0.0343  0.3262
18582THY    CA651870   4.335   3.207   6.263 -0.5813 -0.2685  0.2073
18582THY    HA651871   4.326   3.213   6.155  1.9953 -0.5911 -0.6138
18583THY      O51872   7.693   1.905   3.084 -0.4828  0.1601 -0.4281
18583THY     HO51873   7.762   1.874   3.023 -0.1262  0.9774 -1.3286
18583THY    CA151874   7.590   1.951   3.027  0.6334  0.4783 -0.2385
18583THY    CA251875   7.500   2.022   3.102  0.5514 -0.9239 -0.5197
18583THY    CP151876   7.533   2.042   3.252  0.8636 -0.0692  0.1079
18583THY    HP151877   7.579   1.953   3.295  0.4148  1.8568  0.7452
18583THY    CP251878   7.417   2.062   3.340  0.1360 -0.4100 -0.3273
18583THY    HP251879   7.345   1.980   3.334 -1.2691  1.3790  0.6844
18583THY    HP351880   7.361   2.150   3.304 -1.6045 -0.3678 -1.3602
18583THY    HP451881   7.434   2.076   3.447 -3.2291  0.2332 -0.1203
18583THY    CP351882   7.641   2.148   3.277 -0.4915 -0.5411 -0.0898
18583THY    HP551883   7.584   2.241   3.264  0.0845  0.2335  0.3790
18583THY    HP651884   7.719   2.133   3.201 -0.2581 -0.0510 -1.5099
18583THY    HP751885   7.676   2.142   3.381  2.5802 -1.5263 -0.8554
18583THY    CA351886   7.393   2.093   3.036  0.7269 -0.1725  0.6669
18583THY    HA351887   7.322   2.151   3.094  1.2027  0.3204  0.7581
18583THY    CA451888   7.377   2.074   2.900  0.3405 -0.0176 -0.3790
18583THY    HA451889   7.282   2.103   2.855 -0.3054  1.0688 -0.7594
18583THY    CA551890   7.467   2.004   2.824 -0.2708  0.6031 -0.5988
18583THY    CM151891   7.446   1.988   2.677 -0.5079 -0.0315 -0.7180
18583THY    HM151892   7.535   2.009   2.617 -0.9483 -0.5655 -0.3362
18583THY    HM251893   7.383   2.067   2.634  0.7553 -3.6336 -1.5056
18583THY    HM351894   7.404   1.889   2.659  0.6177 -2.5437 -0.7969
18583THY    CA651895   7.580   1.947   2.881  0.0596 -0.6425 -0.4072
18583THY    HA651896   7.650   1.901   2.812 -0.7272 -1.5743 -0.2402
18584THY      O51897   5.853   6.018   5.565 -0.0009 -0.0884  0.4508
18584THY     HO51898   5.795   6.060   5.631 -0.5703 -0.7248  0.6745
18584THY    CA151899   5.926   5.944   5.645  0.2377 -0.3814  0.7552
18584THY    CA251900   6.008   5.841   5.598  0.5521 -0.0268 -0.7235
18584THY    CP151901   6.034   5.822   5.450  0.3355 -0.1389  0.0929
18584THY    HP151902   6.027   5.921   5.402  0.9650  0.7035  0.5591
18584THY    CP251903   5.928   5.730   5.390  0.3099  0.5206  0.4670
18584THY    HP251904   5.952   5.718   5.283  1.1924  0.6572  0.9291
18584THY    HP351905   5.828   5.774   5.395  0.8307  1.3513  1.6000
18584THY    HP451906   5.933   5.638   5.449  1.5334  2.0892  1.4771
18584THY    CP351907   6.180   5.770   5.411 -0.2513 -0.3484  0.1160
18584THY    HP551908   6.192   5.662   5.420 -0.7181 -2.8496 -0.1947
18584THY    HP651909   6.252   5.818   5.479 -0.6106  0.0883  0.0467
18584THY    HP751910   6.200   5.782   5.304  0.2299 -0.3438 -0.6179
18584THY    CA351911   6.080   5.759   5.688  0.2620 -0.4860 -0.1160
18584THY    HA351912   6.125   5.665   5.656  2.7558 -2.1846  1.4935
18584THY    CA451913   6.076   5.794   5.824 -0.3157 -0.0365 -0.0088
18584THY    HA451914   6.115   5.725   5.899 -1.9921 -1.2503 -2.4313
18584THY    CA551915   6.004   5.905   5.868  0.0354 -0.7585  0.0105
18584THY    CM151916   5.991   5.939   6.010 -0.5384  0.5670  0.1900
18584THY    HM151917   6.060   5.884   6.075 -0.9546  0.4536 -0.4805
18584THY    HM251918   5.895   5.911   6.056 -0.1271  1.0072 -0.5650
18584THY    HM351919   6.017   6.045   6.014 -0.3777 -0.9327  0.2295
18584THY    CA651920   5.927   5.984   5.779 -0.0977 -0.7708  0.0322
18584THY    HA651921   5.865   6.064   5.818  0.1279 -0.0725 -0.1237
18585THY      O51922   7.960   1.067   8.120  0.1742 -0.1435  0.2670
18585THY     HO51923   8.021   0.992   8.132 -1.4627  1.5523 -0.8608
18585THY    CA151924   7.911   1.063   7.996 -0.0805 -0.0253 -0.5699
18585THY    CA251925   7.805   1.146   7.953 -0.1828 -0.1156 -0.4920
18585THY    CP151926   7.736   1.234   8.050 -0.7956  0.1417  0.3418
18585THY    HP151927   7.781   1.229   8.150 -1.4643  0.4064 -0.8469
18585THY    CP251928   7.581   1.198   8.056 -0.1864 -0.8346 -0.4468
18585THY    HP251929   7.540   1.193   7.954 -0.0934 -0.8037 -2.2874
18585THY    HP351930   7.526   1.280   8.104  0.1870 -1.4575  0.1902
18585THY    HP451931   7.563   1.109   8.117  1.8084 -0.5387 -0.6959
18585THY    CP351932   7.758   1.374   8.001 -0.0292 -0.2102 -0.0125
18585THY    HP551933   7.719   1.445   8.074  0.3492 -0.8182  0.8400
18585THY    HP651934   7.715   1.397   7.902  0.6556 -0.6323 -0.5100
18585THY    HP751935   7.866   1.389   8.000  0.1521 -0.6860 -1.2228
18585THY    CA351936   7.759   1.143   7.816 -0.2933 -0.6464  0.2876
18585THY    HA351937   7.675   1.203   7.781  0.1901 -0.3691  1.1358
18585THY    CA451938   7.828   1.057   7.724  0.7363  0.1415  0.0718
18585THY    HA451939   7.811   1.049   7.617 -0.0835  0.3834 -1.8021
18585THY    CA551940   7.931   0.973   7.770  0.0714  0.4717 -0.0696
18585THY    CM151941   8.014   0.885   7.676 -0.0091  0.0801 -0.6190
18585THY    HM151942   8.063   0.809   7.738 -0.0346  0.2013 -0.5379
18585THY    HM251943   8.092   0.943   7.626 -1.4584 -2.0601 -0.3826
18585THY    HM351944   7.964   0.852   7.584 -2.8109  1.7329 -1.3125
18585THY    CA651945   7.979   0.987   7.903 -0.3933 -0.3465  0.4719
18585THY    HA651946   8.068   0.934   7.934  0.0141  0.9401  1.8413
18586THY      O51947   2.948   3.646   2.433  0.0255  0.4229 -0.3801
18586THY     HO51948   2.944   3.580   2.505  0.3153  0.3329 -0.4948
18586THY    CA151949   2.903   3.765   2.468 -0.4506  0.2427 -0.6731
18586THY    CA251950   2.949   3.874   2.392 -0.0802  0.4580  0.4188
18586THY    CP151951   3.051   3.857   2.279  0.2794 -0.5073 -0.0268
18586THY    HP151952   3.048   3.754   2.240 -1.3824  2.1251 -1.0558
18586THY    CP251953   3.191   3.885   2.327  0.6894 -0.2344  0.7053
18586THY    HP251954   3.195   3.991   2.357 -0.5624 -0.9421  0.9743
18586THY    HP351955   3.261   3.875   2.244  1.5825  0.7107 -1.4912
18586THY    HP451956   3.226   3.821   2.410  2.6811 -3.1423 -2.3161
18586THY    CP351957   3.000   3.933   2.158 -1.1379  0.8605  0.1428
18586THY    HP551958   2.898   3.898   2.135 -1.3974  2.2007 -0.0295
18586THY    HP651959   3.071   3.930   2.074  1.5768  3.0215 -0.3575
18586THY    HP751960   2.983   4.038   2.185 -1.0033  1.4667  0.0118
18586THY    CA351961   2.910   4.005   2.445 -0.3531  0.6016 -0.2987
18586THY    HA351962   2.926   4.097   2.388 -1.8364  0.0383 -0.3563
18586THY    CA451963   2.838   4.020   2.564 -0.1729 -0.2249 -0.1460
18586THY    HA451964   2.805   4.119   2.593  1.9139 -0.4462  0.6617
18586THY    CA551965   2.784   3.906   2.624 -0.3957  0.1733 -0.7563
18586THY    CM151966   2.701   3.915   2.740 -0.4425 -0.2547 -0.3153
18586THY    HM151967   2.665   4.016   2.761  2.7501  0.6472  0.7353
18586THY    HM251968   2.737   3.889   2.840 -0.5583 -0.0649  0.2364
18586THY    HM351969   2.617   3.845   2.731  0.5694  0.1230 -1.6139
18586THY    CA651970   2.829   3.777   2.588 -0.2273  0.1479  0.6022
18586THY    HA651971   2.787   3.692   2.641  0.3274 -1.3407 -0.6556
18587THY      O51972   6.755   5.875   7.258  0.2251  0.7235  0.6468
18587THY     HO51973   6.762   5.957   7.310  0.8665 -1.0391  1.7630
18587THY    CA151974   6.758   5.914   7.123 -0.6016 -0.4764  0.5546
18587THY    CA251975   6.817   5.835   7.027  0.3090  0.1049  1.2522
18587THY    CP151976   6.896   5.713   7.072 -0.0612 -0.6298 -0.7468
18587THY    HP151977   6.871   5.685   7.175  0.6435  0.0520  1.0057
18587THY    CP251978   7.043   5.753   7.079 -0.2956 -0.1492  0.0611
18587THY    HP251979   7.064   5.827   7.157 -0.9486  0.5284 -0.4517
18587THY    HP351980   7.083   5.796   6.986  0.7862 -0.7469 -2.0780
18587THY    HP451981   7.099   5.659   7.088 -0.7905 -2.1205 -0.4848
18587THY    CP351982   6.870   5.593   6.989  0.7036 -0.4883  0.0321
18587THY    HP551983   6.895   5.506   7.051  0.1338 -0.1596  0.0962
18587THY    HP651984   6.929   5.588   6.896  1.5632 -0.0017  0.9184
18587THY    HP751985   6.764   5.586   6.962 -0.1631  2.0409  1.9923
18587THY    CA351986   6.820   5.869   6.891  0.4474  0.1370 -0.2359
18587THY    HA351987   6.876   5.811   6.818  1.5902 -0.7844  1.8907
18587THY    CA451988   6.766   5.989   6.856 -0.5081  0.5473 -0.1967
18587THY    HA451989   6.774   6.014   6.751  1.0734 -0.0197 -2.7233
18587THY    CA551990   6.698   6.075   6.948  0.4806  0.1105 -0.1861
18587THY    CM151991   6.615   6.193   6.908  0.3309 -1.0218  0.3415
18587THY    HM151992   6.664   6.281   6.866 -0.6701 -2.6276  0.1839
18587THY    HM251993   6.564   6.220   7.001 -0.0371 -0.7735 -1.1198
18587THY    HM351994   6.540   6.159   6.835 -0.9658  1.6008 -2.9849
18587THY    CA651995   6.694   6.027   7.081  0.0945 -0.3184  0.0327
18587THY    HA651996   6.654   6.091   7.159  1.5017  0.0236  0.5352
18588THY      O51997   7.462   5.861   3.351 -0.1221 -0.1370 -0.5191
18588THY     HO51998   7.472   5.863   3.254 -2.0538 -0.3724  1.1366
18588THY    CA151999   7.505   5.984   3.398 -0.0367 -0.6245 -0.0883
18588THY    CA252000   7.449   6.032   3.522  0.2888 -0.4729  0.1163
18588THY    CP152001   7.353   5.943   3.600 -0.1917  0.0529 -0.2509
18588THY    HP152002   7.335   5.852   3.543  2.0530 -1.9241  0.4491
18588THY    CP252003   7.221   6.025   3.626  0.4247  0.4019 -0.5605
18588THY    HP252004   7.193   6.097   3.548 -3.2006 -1.8951 -4.0969
18588THY    HP352005   7.220   6.087   3.716 -1.1195  0.8459 -1.1958
18588THY    HP452006   7.139   5.953   3.624 -2.5978  0.1551  2.6070
18588THY    CP352007   7.414   5.890   3.735  0.7615  0.6717 -0.4237
18588THY    HP552008   7.424   5.968   3.811 -0.8780  1.4024 -0.8847
18588THY    HP652009   7.514   5.856   3.705 -0.5319 -3.9017 -0.8440
18588THY    HP752010   7.360   5.799   3.763  0.8234 -1.3579 -1.1354
18588THY    CA352011   7.492   6.158   3.562  0.1549 -0.0325  0.7573
18588THY    HA352012   7.455   6.214   3.647  2.8693 -0.4328  3.3918
18588THY    CA452013   7.576   6.224   3.479 -0.2098  0.0425 -0.0228
18588THY    HA452014   7.615   6.321   3.508 -3.5370 -0.9924  1.7878
18588THY    CA552015   7.626   6.181   3.356  0.5362 -0.0088 -0.7634
18588THY    CM152016   7.727   6.250   3.278 -0.5251 -0.0284  0.2340
18588THY    HM152017   7.685   6.348   3.250 -0.5519  0.9598  0.5213
18588THY    HM252018   7.757   6.202   3.185  0.5423  0.3312  0.1857
18588THY    HM352019   7.809   6.270   3.348 -1.3575  0.5883  1.6636
18588THY    CA652020   7.586   6.055   3.315  0.2309  0.9150 -0.1794
18588THY    HA652021   7.617   6.012   3.220 -0.4284  1.5368 -2.1724
18589THY      O52022   5.859   0.777   6.052  0.1405  0.2129  0.1639
18589THY     HO52023   5.801   0.725   5.994 -0.1912 -0.2139  0.9932
18589THY    CA152024   5.884   0.894   5.992  0.7100  0.2975  0.3829
18589THY    CA252025   5.972   0.989   6.042  0.7539 -0.1743 -0.2805
18589THY    CP152026   6.078   0.938   6.140 -0.8844  0.2136  0.9937
18589THY    HP152027   6.053   0.845   6.193  0.7146 -1.8919 -0.7590
18589THY    CP252028   6.109   1.038   6.252  0.2432  0.7114  0.5594
18589THY    HP252029   6.019   1.066   6.306  0.6262  2.1889 -0.8705
18589THY    HP352030   6.160   1.129   6.219 -1.4994  3.0606  2.4973
18589THY    HP452031   6.176   0.995   6.328  0.2247  1.9446  2.5916
18589THY    CP352032   6.210   0.909   6.063 -0.3674 -0.2984 -0.4610
18589THY    HP552033   6.196   0.838   5.981  0.3782 -1.1831  0.3807
18589THY    HP652034   6.294   0.882   6.128 -0.7337 -0.1877 -1.3541
18589THY    HP752035   6.232   1.005   6.014 -2.6174 -1.5979 -0.5283
18589THY    CA352036   5.962   1.122   5.998 -0.4690  0.3904 -0.1204
18589THY    HA352037   6.029   1.205   6.018  0.4609  1.0654 -1.0105
18589THY    CA452038   5.855   1.164   5.910 -0.3513  0.0332 -0.6240
18589THY    HA452039   5.847   1.268   5.880  0.2903  0.1432 -0.5381
18589THY    CA552040   5.772   1.062   5.860  0.3347 -0.2531  0.1647
18589THY    CM152041   5.660   1.086   5.758 -0.4843  0.1777  0.4267
18589THY    HM152042   5.690   1.030   5.668 -0.0692  2.2840 -3.0352
18589THY    HM252043   5.646   1.187   5.719 -0.1242 -1.6275 -0.1670
18589THY    HM352044   5.566   1.038   5.787  1.3590  3.5906 -1.4730
18589THY    CA652045   5.786   0.926   5.903 -0.3085 -0.7773 -0.5642
18589THY    HA652046   5.721   0.846   5.869  0.9207  0.8406 -2.3132
18590THY      O52047   4.011   2.759   7.336  0.4716 -0.4551 -0.3305
18590THY     HO52048   4.040   2.683   7.282  2.4894  0.8840 -0.5963
18590THY    CA152049   4.008   2.716   7.462  0.1694  0.9620  0.0118
18590THY    CA252050   4.002   2.800   7.570 -0.5824 -0.5495  0.4989
18590THY    CP152051   3.981   2.949   7.541 -0.2184  0.0595  0.5560
18590THY    HP152052   3.964   2.971   7.435 -1.4395  0.1952  0.3297
18590THY    CP252053   4.105   3.035   7.581 -0.8934 -0.1329  0.2279
18590THY    HP252054   4.085   3.140   7.555  0.7253 -2.9762 -0.0524
18590THY    HP352055   4.192   3.013   7.518 -1.0292 -0.6921  1.2112
18590THY    HP452056   4.122   3.029   7.689  1.1311 -0.4386 -0.1882
18590THY    CP352057   3.855   3.008   7.613  0.3129  0.0412 -0.1901
18590THY    HP552058   3.763   2.953   7.591 -0.3068 -2.2846  1.6246
18590THY    HP652059   3.849   3.115   7.591  0.9361  0.2890 -0.0988
18590THY    HP752060   3.869   3.001   7.721  1.1194  0.0426  1.0799
18590THY    CA352061   4.002   2.747   7.700 -0.4254 -0.3590  0.4784
18590THY    HA352062   3.995   2.815   7.785 -0.5714 -0.0633  0.1011
18590THY    CA452063   3.998   2.606   7.715  0.1691 -0.4738 -0.3709
18590THY    HA452064   3.993   2.566   7.816 -1.6806 -0.4019 -0.0742
18590THY    CA552065   4.001   2.522   7.611  0.6906  0.7058  0.1881
18590THY    CM152066   4.009   2.369   7.618 -0.1495  0.4809 -0.3293
18590THY    HM152067   3.984   2.332   7.718 -1.0018  1.4454  2.5565
18590THY    HM252068   4.107   2.333   7.587 -0.2528  2.0057 -2.0486
18590THY    HM352069   3.937   2.322   7.550  3.0373 -0.8774 -3.6921
18590THY    CA652070   3.999   2.576   7.484  0.4225 -0.2084  0.2045
18590THY    HA652071   3.995   2.511   7.396  1.9531  0.0666 -0.3063
18591THY      O52072   5.879   2.954   1.942 -0.4744 -0.2526 -1.0299
18591THY     HO52073   5.867   3.050   1.944 -0.7058  0.5363 -1.0717
18591THY    CA152074   5.786   2.896   1.862 -0.5537 -0.6305 -0.1398
18591THY    CA252075   5.793   2.755   1.830 -0.6318 -0.3156 -0.1055
18591THY    CP152076   5.893   2.660   1.897 -0.1510 -0.2352 -0.3581
18591THY    HP152077   5.924   2.697   1.995 -0.0759  0.4083 -2.0324
18591THY    CP252078   6.016   2.626   1.816  0.0800  0.3166 -0.3830
18591THY    HP252079   6.086   2.574   1.883 -1.0022 -0.4621 -3.0271
18591THY    HP352080   6.066   2.718   1.787  0.3340 -1.4219 -1.0322
18591THY    HP452081   6.008   2.565   1.725  2.3881 -1.7701  2.1980
18591THY    CP352082   5.820   2.529   1.930 -0.4446  0.0523  0.1635
18591THY    HP552083   5.739   2.544   2.002  1.2819  2.2213 -0.4146
18591THY    HP652084   5.895   2.462   1.974 -1.1617  3.2123  1.2979
18591THY    HP752085   5.786   2.484   1.835 -1.0086 -0.3340  1.3576
18591THY    CA352086   5.709   2.707   1.721 -0.7002  0.0159 -0.5052
18591THY    HA352087   5.716   2.604   1.686  1.6597  1.1673 -0.8020
18591THY    CA452088   5.610   2.798   1.680 -0.2016 -0.0467  0.2747
18591THY    HA452089   5.539   2.764   1.605 -0.4649  0.1830  0.3146
18591THY    CA552090   5.594   2.926   1.734  0.5376  0.4176  0.2156
18591THY    CM152091   5.481   3.017   1.695 -0.1424 -0.3962  0.5027
18591THY    HM152092   5.437   2.979   1.603 -1.7847  0.4885  0.1499
18591THY    HM252093   5.529   3.109   1.662 -2.1914 -2.1530  1.0232
18591THY    HM352094   5.404   3.029   1.772 -0.5067 -0.8044  0.8022
18591THY    CA652095   5.689   2.980   1.815 -0.7321 -0.0692  0.8031
18591THY    HA652096   5.684   3.082   1.851 -1.0046  1.5483  0.2513
18592THY      O52097   0.535   8.872   6.387 -0.4219 -0.4807  0.3086
18592THY     HO52098   0.591   8.893   6.464 -0.1419 -0.9491  1.3807
18592THY    CA152099   0.609   8.788   6.306  0.0295 -0.2411 -0.2623
18592THY    CA252100   0.561   8.748   6.179  0.7272 -0.1567  0.1698
18592THY    CP152101   0.421   8.798   6.133 -0.1856  0.3074 -0.0840
18592THY    HP152102   0.392   8.889   6.186 -1.8100  0.5421 -0.7155
18592THY    CP252103   0.322   8.677   6.153  0.2062  0.1979 -0.0423
18592THY    HP252104   0.341   8.633   6.252  0.3246  0.0264 -0.3779
18592THY    HP352105   0.331   8.597   6.079  0.4405 -0.5455  0.6557
18592THY    HP452106   0.218   8.712   6.148  0.2274  0.8538  0.1447
18592THY    CP352107   0.427   8.830   5.976  0.2478 -0.0742  0.6160
18592THY    HP552108   0.483   8.923   5.967  0.3747 -0.3385  0.5144
18592THY    HP652109   0.326   8.857   5.943 -0.1554 -0.4103 -1.1737
18592THY    HP752110   0.467   8.746   5.919  2.1775  2.3046 -0.1930
18592THY    CA352111   0.634   8.654   6.105 -0.3070 -0.2965 -0.3742
18592THY    HA352112   0.585   8.608   6.020 -2.5943  0.7715 -0.0882
18592THY    CA452113   0.754   8.610   6.155  0.0301 -0.5189  0.0037
18592THY    HA452114   0.800   8.528   6.101  0.6391  2.8545 -2.0494
18592THY    CA552115   0.800   8.647   6.283 -0.5116 -0.0074  0.4043
18592THY    CM152116   0.938   8.612   6.315  0.0129  0.6901 -0.2459
18592THY    HM152117   0.979   8.653   6.408  0.2680  0.7218 -0.5721
18592THY    HM252118   1.011   8.634   6.236 -1.0114 -0.0797  0.4808
18592THY    HM352119   0.942   8.504   6.329  3.2755 -1.0626 -0.4866
18592THY    CA652120   0.732   8.741   6.357  0.6628 -0.8699 -0.1633
18592THY    HA652121   0.774   8.790   6.444 -0.4363 -1.5167  2.0323
18593THY      O52122   8.915   0.471   4.435  0.3545  0.0254  0.2908
18593THY     HO52123   8.927   0.403   4.504  0.8508 -2.4168 -2.2537
18593THY    CA152124   8.863   0.576   4.497 -0.2467  0.4429 -0.6761
18593THY    CA252125   8.842   0.700   4.429  0.3636 -1.0442  0.3360
18593THY    CP152126   8.874   0.716   4.283  0.4477  0.5571 -0.8252
18593THY    HP152127   8.830   0.633   4.225  1.2375 -0.6283 -0.4485
18593THY    CP252128   9.030   0.721   4.264 -0.2572  0.0437  0.5663
18593THY    HP252129   9.065   0.721   4.160 -0.6660 -0.0959  0.2691
18593THY    HP352130   9.079   0.632   4.305 -1.4648 -1.4759 -0.8538
18593THY    HP452131   9.067   0.808   4.321 -0.0097  1.8776 -0.6847
18593THY    CP352132   8.827   0.845   4.216  0.9875 -0.0220 -0.3101
18593THY    HP552133   8.729   0.873   4.257  2.0275  1.7875  0.8780
18593THY    HP652134   8.817   0.828   4.108  0.1299  0.0081 -0.0412
18593THY    HP752135   8.887   0.935   4.231  0.8537 -0.2909 -0.1762
18593THY    CA352136   8.805   0.812   4.506  1.5672 -0.2463  0.0307
18593THY    HA352137   8.806   0.909   4.459 -0.0487  1.2283  0.8242
18593THY    CA452138   8.773   0.792   4.642 -0.1955 -0.3621 -0.2950
18593THY    HA452139   8.732   0.875   4.698  0.1885 -0.7356  0.1542
18593THY    CA552140   8.801   0.674   4.714 -0.2127  0.0684  0.3043
18593THY    CM152141   8.786   0.658   4.864 -0.1382 -0.4542  0.0388
18593THY    HM152142   8.852   0.579   4.900  1.0196  0.7183  1.4773
18593THY    HM252143   8.687   0.631   4.902  0.8845  2.7051  0.3456
18593THY    HM352144   8.817   0.755   4.905 -0.5557 -1.2418  0.5267
18593THY    CA652145   8.842   0.566   4.639  0.6443 -0.2904 -0.3409
18593THY    HA652146   8.879   0.477   4.689  1.3918 -3.9814 -2.2877
18594THY      O52147   4.858   5.198   5.998  0.3820 -0.2404 -0.1037
18594THY     HO52148   4.855   5.152   6.084  2.3267 -0.7452 -1.2831
18594THY    CA152149   4.874   5.330   6.033  0.4660 -0.2839  1.2285
18594THY    CA252150   4.881   5.418   5.928  0.2996  0.0983 -0.0350
18594THY    CP152151   4.869   5.359   5.779  0.0102  0.8883 -0.1570
18594THY    HP152152   4.921   5.263   5.779 -0.8711  1.6745 -0.6558
18594THY    CP252153   4.940   5.448   5.679  0.2148  0.2518  0.5644
18594THY    HP252154   5.036   5.480   5.721 -0.0806  0.5827  1.0292
18594THY    HP352155   4.884   5.541   5.661  0.5945 -0.0629  0.7363
18594THY    HP452156   4.969   5.405   5.582 -1.5171 -0.6089  1.2290
18594THY    CP352157   4.722   5.323   5.739 -0.1212 -0.3246 -0.6796
18594THY    HP552158   4.717   5.264   5.647  0.9735  0.3245 -1.8333
18594THY    HP652159   4.650   5.405   5.737 -0.1618 -0.3881 -0.7164
18594THY    HP752160   4.674   5.260   5.814  0.2335  1.4855  1.0762
18594THY    CA352161   4.898   5.555   5.951 -0.3525 -0.0094  0.6113
18594THY    HA352162   4.891   5.626   5.869 -0.8601 -1.2051 -0.7628
18594THY    CA452163   4.905   5.599   6.083 -0.0028 -0.4992  0.0008
18594THY    HA452164   4.906   5.706   6.105  0.1179 -2.2885  0.3968
18594THY    CA552165   4.881   5.507   6.196 -0.4881  0.3037 -0.3505
18594THY    CM152166   4.873   5.560   6.344 -0.1358  0.2141 -0.0291
18594THY    HM152167   4.963   5.540   6.403  0.0167  0.2779  0.7835
18594THY    HM252168   4.782   5.519   6.389 -0.5143 -0.4452  0.0709
18594THY    HM352169   4.871   5.670   6.335  1.2332  1.0225  0.0937
18594THY    CA652170   4.862   5.371   6.169  0.0751 -0.2914 -0.8884
18594THY    HA652171   4.829   5.297   6.241  1.4641  0.2666 -1.0032
18595THY      O52172   2.821   7.527   4.835  0.1196 -0.0273 -0.2208
18595THY     HO52173   2.895   7.576   4.796  0.9344 -0.0593 -1.4264
18595THY    CA152174   2.812   7.560   4.965 -0.4573 -0.3136 -0.1180
18595THY    CA252175   2.771   7.469   5.067  0.6217  0.7306  0.2304
18595THY    CP152176   2.727   7.333   5.027  0.2397 -0.0041 -0.4137
18595THY    HP152177   2.742   7.331   4.919 -0.1908 -0.0658 -0.3570
18595THY    CP252178   2.578   7.298   5.058 -0.1282  0.1180 -0.0021
18595THY    HP252179   2.508   7.368   5.010 -1.9892  1.0476 -1.1469
18595THY    HP352180   2.554   7.293   5.165  0.2769  0.1910 -0.4850
18595THY    HP452181   2.552   7.205   5.007  0.5819  1.3768 -0.9212
18595THY    CP352182   2.815   7.228   5.103  0.4410 -0.2251  0.3674
18595THY    HP552183   2.795   7.232   5.211 -1.9749 -0.5369 -1.3028
18595THY    HP652184   2.921   7.252   5.100  0.2846  2.3040  1.7338
18595THY    HP752185   2.784   7.132   5.060 -3.1448  0.6390  0.9928
18595THY    CA352186   2.769   7.511   5.206 -0.2947 -0.2410 -0.4473
18595THY    HA352187   2.737   7.447   5.287 -1.1537  0.1714  0.4852
18595THY    CA452188   2.810   7.643   5.231  0.1298 -0.6792  0.2827
18595THY    HA452189   2.812   7.677   5.334  0.3503 -0.0417 -1.5632
18595THY    CA552190   2.837   7.735   5.133 -0.1482  0.1411  0.8079
18595THY    CM152191   2.874   7.874   5.160 -0.0750  0.3355  0.1602
18595THY    HM152192   2.983   7.868   5.168 -0.1395  1.6362  0.3169
18595THY    HM252193   2.827   7.915   5.251  0.0878  0.9046 -0.8946
18595THY    HM352194   2.852   7.937   5.073  1.3186  0.6195  1.0816
18595THY    CA652195   2.841   7.690   4.997  0.1589  0.3182 -0.0750
18595THY    HA652196   2.863   7.760   4.917 -0.3699  0.4274  0.2243
18596THY      O52197   0.912   3.895   5.299  0.1250 -0.2969 -0.0800
18596THY     HO52198   0.823   3.897   5.260  0.0556 -0.1152  1.0869
18596THY    CA152199   0.973   3.780   5.267 -0.0756  0.1107 -0.5974
18596THY    CA252200   1.097   3.744   5.321 -0.1118  0.2244  0.4950
18596THY    CP152201   1.163   3.842   5.417 -0.6003 -0.1322 -0.1736
18596THY    HP152202   1.123   3.943   5.401 -0.4976 -1.6887 -0.3545
18596THY    CP252203   1.316   3.852   5.387 -0.1373  0.1279 -0.0701
18596THY    HP252204   1.351   3.825   5.287  0.3398  1.1017 -3.6563
18596THY    HP352205   1.364   3.776   5.451  1.0304 -1.6976 -0.9300
18596THY    HP452206   1.357   3.949   5.417  0.5524 -0.2168 -0.2462
18596THY    CP352207   1.138   3.810   5.563  0.3451 -0.0756  0.2591
18596THY    HP552208   1.042   3.857   5.589  0.0596 -2.6537  1.2163
18596THY    HP652209   1.228   3.840   5.619  0.8028 -1.3340  1.3272
18596THY    HP752210   1.125   3.703   5.581  0.3579  0.9422  0.4124
18596THY    CA352211   1.147   3.613   5.296  0.8714  0.1826  0.0681
18596THY    HA352212   1.240   3.581   5.342  1.2023  0.0278  0.7795
18596THY    CA452213   1.068   3.524   5.219 -0.1293  0.5251 -0.4319
18596THY    HA452214   1.101   3.421   5.207 -2.7754 -3.0369 -1.0787
18596THY    CA552215   0.953   3.568   5.155 -0.0014 -0.3136  0.2904
18596THY    CM152216   0.875   3.474   5.070  0.1273 -0.4212  0.6767
18596THY    HM152217   0.853   3.538   4.984 -1.2512 -0.2776  0.4206
18596THY    HM252218   0.786   3.430   5.116  3.0967  4.3156 -1.2493
18596THY    HM352219   0.944   3.399   5.030  1.7425  1.6803  0.9262
18596THY    CA652220   0.902   3.700   5.178  0.1131 -0.7163  0.3549
18596THY    HA652221   0.807   3.737   5.141  1.0564 -2.0610  1.5601
18597THY      O52222   8.474   3.368   5.027  0.3840 -0.7799 -0.2626
18597THY     HO52223   8.478   3.303   5.099  0.7095  0.8638  1.4812
18597THY    CA152224   8.601   3.407   5.001 -0.9492  0.2382  0.8740
18597THY    CA252225   8.639   3.536   4.960  0.6006  0.4234 -0.2759
18597THY    CP152226   8.535   3.655   4.944 -0.1118  1.2444  0.0730
18597THY    HP152227   8.440   3.615   4.983  1.1406  3.3088 -1.1083
18597THY    CP252228   8.516   3.695   4.796 -0.7815  0.0235  0.0180
18597THY    HP252229   8.614   3.685   4.749 -0.4051  0.6895  0.4915
18597THY    HP352230   8.489   3.798   4.767 -1.2728 -1.2496 -0.4417
18597THY    HP452231   8.452   3.626   4.739 -0.1099 -1.4354  0.5567
18597THY    CP352232   8.587   3.778   5.021  0.1007  0.3355 -0.1600
18597THY    HP552233   8.600   3.747   5.125  3.5873 -0.2064 -0.8779
18597THY    HP652234   8.503   3.849   5.017  1.0529 -0.1234  0.9848
18597THY    HP752235   8.676   3.824   4.977  0.2452  0.8518  0.0537
18597THY    CA352236   8.770   3.554   4.919 -0.1105 -0.3743 -0.1930
18597THY    HA352237   8.816   3.642   4.874  1.5678  0.4606 -0.5956
18597THY    CA452238   8.860   3.444   4.915  0.1488  0.2578  0.4478
18597THY    HA452239   8.962   3.461   4.881 -0.0121  0.1664  1.3049
18597THY    CA552240   8.822   3.321   4.965  0.2377  0.0138  0.0633
18597THY    CM152241   8.917   3.214   4.992 -0.2036  0.2200 -0.0894
18597THY    HM152242   8.876   3.139   5.061 -0.5812  0.8915  0.7206
18597THY    HM252243   9.011   3.233   5.043  1.3717 -1.1597 -3.3330
18597THY    HM352244   8.947   3.170   4.896  1.4021  0.0195  1.3696
18597THY    CA652245   8.692   3.301   5.003  0.3401  0.3208 -0.2485
18597THY    HA652246   8.661   3.202   5.034 -2.0485 -0.9116  0.0311
18598THY      O52247   2.899   7.854   3.715  0.1226 -0.4510  0.3739
18598THY     HO52248   2.928   7.825   3.627  0.4598 -0.4349  0.6634
18598THY    CA152249   2.945   7.978   3.741  0.1673  0.6561 -0.0046
18598THY    CA252250   2.930   8.040   3.862 -0.4702  0.2674  0.1370
18598THY    CP152251   2.855   7.974   3.977 -0.2249  0.1780  0.0885
18598THY    HP152252   2.766   7.925   3.938 -1.8389  0.8113  2.3640
18598THY    CP252253   2.799   8.077   4.076  0.5824 -0.9318  0.4386
18598THY    HP252254   2.868   8.108   4.156 -2.4902  2.0405  0.2539
18598THY    HP352255   2.715   8.041   4.137  0.3714  0.2209  2.6890
18598THY    HP452256   2.763   8.170   4.030  0.2966  2.3769  2.1311
18598THY    CP352257   2.943   7.874   4.051 -0.7362  0.1800  0.5512
18598THY    HP552258   2.899   7.835   4.144  0.1595  0.0183 -0.9672
18598THY    HP652259   3.045   7.908   4.071 -0.8938 -0.4673  1.4264
18598THY    HP752260   2.965   7.782   3.995  0.6414  0.2038  0.8455
18598THY    CA352261   3.003   8.160   3.883 -0.2856 -0.2915 -0.6419
18598THY    HA352262   3.007   8.215   3.977 -1.1329 -0.3212 -0.5201
18598THY    CA452263   3.069   8.218   3.778 -0.8560  0.0353 -0.2246
18598THY    HA452264   3.121   8.311   3.799 -0.6654 -0.1035 -0.3003
18598THY    CA552265   3.062   8.158   3.656  0.2489 -0.4740 -0.6467
18598THY    CM152266   3.113   8.241   3.546  0.4159  0.1720 -0.5418
18598THY    HM152267   3.139   8.183   3.456  0.9086  1.1983 -1.9881
18598THY    HM252268   3.209   8.289   3.569  1.5300 -3.2912 -0.8641
18598THY    HM352269   3.038   8.313   3.513 -0.8756  1.6407 -1.1535
18598THY    CA652270   3.010   8.036   3.640 -0.3017 -0.4311 -0.3864
18598THY    HA652271   3.007   7.991   3.541  0.3018 -1.2070  1.2194
18599THY      O52272   9.067   7.373   6.430 -0.3236 -0.2192 -0.2863
18599THY     HO52273   9.024   7.446   6.383  0.0704  2.5661  1.9356
18599THY    CA152274   9.086   7.424   6.556 -0.0198  0.3309 -0.4505
18599THY    CA252275   9.155   7.355   6.662 -0.1406  0.4664 -0.4482
18599THY    CP152276   9.224   7.218   6.636  0.6157  0.7574  0.0717
18599THY    HP152277   9.217   7.189   6.531  1.7796  0.5954  0.3087
18599THY    CP252278   9.151   7.113   6.717  0.0157 -0.0225 -0.4497
18599THY    HP252279   9.160   7.130   6.825 -1.6811  0.0385  0.2052
18599THY    HP352280   9.180   7.015   6.677  1.5704 -2.9019  1.0611
18599THY    HP452281   9.044   7.123   6.697 -0.2838  1.6997  0.1790
18599THY    CP352282   9.374   7.221   6.671  0.2835  0.1562 -0.0009
18599THY    HP552283   9.417   7.121   6.658  0.1157 -0.2165 -0.0255
18599THY    HP652284   9.390   7.246   6.777  2.1034  0.0559 -0.6252
18599THY    HP752285   9.431   7.285   6.604  0.0618 -1.4872 -1.4546
18599THY    CA352286   9.163   7.408   6.791  0.1276 -0.1071  0.2741
18599THY    HA352287   9.214   7.358   6.873 -0.8267  2.4492  3.1414
18599THY    CA452288   9.102   7.529   6.810  0.0487  0.0497  0.8662
18599THY    HA452289   9.104   7.568   6.911 -0.2688  0.4419 -0.1247
18599THY    CA552290   9.042   7.601   6.705  0.1260  0.9337  0.0821
18599THY    CM152291   8.970   7.736   6.737 -0.6833  0.4239 -0.2261
18599THY    HM152292   8.964   7.758   6.845  1.9137  0.5562  0.1843
18599THY    HM252293   8.868   7.738   6.699  0.1350 -1.9015  0.6215
18599THY    HM352294   9.036   7.812   6.695  2.0761  2.5426 -1.2594
18599THY    CA652295   9.041   7.556   6.580 -0.0282  0.3371  0.3728
18599THY    HA652296   9.001   7.625   6.506  0.0157 -0.4642 -0.4474
18600THY      O52297   1.386   1.594   5.016  0.9354  0.2108  0.3809
18600THY     HO52298   1.464   1.540   5.040 -0.4480  1.1987 -1.2643
18600THY    CA152299   1.286   1.561   5.101 -0.1462  0.5817  0.1121
18600THY    CA252300   1.220   1.441   5.096 -0.0855  0.2296 -0.5005
18600THY    CP152301   1.245   1.340   4.984  0.8617 -0.1712 -0.5041
18600THY    HP152302   1.354   1.339   4.971  0.7841 -1.0256  0.6257
18600THY    CP252303   1.191   1.377   4.849 -0.2651 -0.1860 -0.6048
18600THY    HP252304   1.260   1.346   4.770  0.6479  0.7620 -1.0540
18600THY    HP352305   1.185   1.486   4.841  0.8290 -0.8814 -0.5851
18600THY    HP452306   1.089   1.340   4.830 -1.7069 -0.7633  3.2182
18600THY    CP352307   1.209   1.197   5.032 -0.3485  0.2357 -0.2990
18600THY    HP552308   1.118   1.190   5.093 -0.7838 -0.1035  1.6513
18600THY    HP652309   1.291   1.168   5.098  2.0148 -2.6295 -0.6134
18600THY    HP752310   1.216   1.128   4.947  0.3362  1.1142 -1.3504
18600THY    CA352311   1.115   1.422   5.196  0.0340 -0.0306 -0.9928
18600THY    HA352312   1.047   1.337   5.195  1.4016  0.4712 -2.1431
18600THY    CA452313   1.091   1.525   5.290  0.1478  0.5498  0.5602
18600THY    HA452314   1.010   1.515   5.362 -1.3955 -1.0900  0.9032
18600THY    CA552315   1.173   1.636   5.294  0.9140 -0.2230 -0.1814
18600THY    CM152316   1.153   1.738   5.399  0.5604 -0.2937 -0.2118
18600THY    HM152317   1.148   1.707   5.504 -2.5693  0.5830  2.7550
18600THY    HM252318   1.057   1.787   5.381 -0.4189 -0.0776 -1.9507
18600THY    HM352319   1.233   1.813   5.399 -0.7787  0.8454  1.2836
18600THY    CA652320   1.267   1.656   5.197 -0.2634  0.9478  0.0976
18600THY    HA652321   1.319   1.751   5.194  0.5966 -0.7025 -0.3877
18601THY      O52322   5.677   6.415   4.048  0.2952 -0.0209  0.0891
18601THY     HO52323   5.614   6.426   3.975 -0.2569  0.4255 -0.1081
18601THY    CA152324   5.621   6.474   4.159  0.1395  0.1569 -0.6049
18601THY    CA252325   5.697   6.543   4.258  0.9478  0.2593  0.1803
18601THY    CP152326   5.849   6.541   4.246 -0.1007 -0.0691 -0.2101
18601THY    HP152327   5.882   6.473   4.167 -0.2879 -2.4263  2.2719
18601THY    CP252328   5.906   6.488   4.373 -0.9797  0.5430 -0.9860
18601THY    HP252329   5.925   6.574   4.439  0.6865 -0.5395 -0.4772
18601THY    HP352330   6.000   6.435   4.359  0.5016  0.6296  1.4467
18601THY    HP452331   5.838   6.412   4.413 -0.8814 -3.5487 -3.5351
18601THY    CP352332   5.920   6.674   4.200  0.3052 -0.0667  0.1492
18601THY    HP552333   5.903   6.759   4.268  0.3774  0.8520 -0.5528
18601THY    HP652334   5.893   6.697   4.096 -0.3786  0.5044  2.1529
18601THY    HP752335   6.029   6.665   4.205  0.1951  1.6214 -0.6056
18601THY    CA352336   5.627   6.596   4.369  0.2989  0.0929 -1.0234
18601THY    HA352337   5.673   6.637   4.458 -0.4543  1.2070 -2.5163
18601THY    CA452338   5.489   6.595   4.371  1.5002  0.4571 -0.5102
18601THY    HA452339   5.434   6.630   4.458 -1.3618 -1.7138  0.8097
18601THY    CA552340   5.414   6.533   4.268  0.1483 -0.3453 -0.2470
18601THY    CM152341   5.263   6.522   4.293 -0.6777 -0.3820  0.5205
18601THY    HM152342   5.206   6.490   4.205 -0.0716  0.2688 -2.6057
18601THY    HM252343   5.226   6.617   4.334  1.1381 -0.4173  1.2786
18601THY    HM352344   5.254   6.455   4.379 -0.6425 -0.2340  0.7055
18601THY    CA652345   5.478   6.473   4.162  0.1911 -0.2272 -0.4063
18601THY    HA652346   5.425   6.419   4.084  1.5921 -1.0043 -0.7149
18602THY      O52347   0.426   7.408   2.909 -0.2822  0.9699 -0.2306
18602THY     HO52348   0.443   7.504   2.911 -1.1150 -3.0901  0.1951
18602THY    CA152349   0.351   7.397   2.796 -0.2046  0.0545  0.1611
18602THY    CA252350   0.284   7.277   2.771 -0.1125  0.0965 -0.5046
18602THY    CP152351   0.306   7.158   2.866  0.2058  0.0340 -0.0651
18602THY    HP152352   0.386   7.180   2.938 -0.9845  1.0418  1.1316
18602THY    CP252353   0.339   7.022   2.795 -0.2172  0.9621  0.2728
18602THY    HP252354   0.370   6.954   2.875 -1.0564  1.9785  1.0634
18602THY    HP352355   0.422   7.035   2.723 -0.5429  0.6028  0.3776
18602THY    HP452356   0.262   6.975   2.733  2.3833 -3.5126  1.2272
18602THY    CP352357   0.176   7.129   2.960 -0.8984  0.0637 -0.3099
18602THY    HP552358   0.087   7.098   2.904 -0.6643 -2.0917  2.5385
18602THY    HP652359   0.146   7.220   3.015 -0.4383 -0.9224  0.4548
18602THY    HP752360   0.200   7.055   3.037  1.8602 -1.8449 -1.5517
18602THY    CA352361   0.210   7.266   2.651 -1.1278 -0.1246 -0.3685
18602THY    HA352362   0.163   7.170   2.629  1.6365 -1.2698 -1.5813
18602THY    CA452363   0.194   7.378   2.570 -0.3145 -0.2796  0.1500
18602THY    HA452364   0.143   7.368   2.474  1.7835 -1.2975 -2.0691
18602THY    CA552365   0.257   7.498   2.603  0.1818 -0.1056  0.1220
18602THY    CM152366   0.251   7.612   2.507  0.3889  0.1823 -0.5735
18602THY    HM152367   0.269   7.707   2.558  0.0413 -0.4266 -0.1758
18602THY    HM252368   0.156   7.622   2.454  0.0114  0.9224 -0.2316
18602THY    HM352369   0.333   7.592   2.436 -0.5390 -1.7949  2.1104
18602THY    CA652370   0.343   7.502   2.708 -0.1202 -0.5619 -0.3888
18602THY    HA652371   0.397   7.593   2.732  0.5840 -2.0222 -0.4047
18603THY      O52372   8.419   6.067   3.263  0.4685  0.2807 -0.1655
18603THY     HO52373   8.494   6.006   3.263  0.6520  0.5006  0.0558
18603THY    CA152374   8.437   6.152   3.160 -0.0744 -0.2070 -0.2605
18603THY    CA252375   8.328   6.221   3.110 -0.3318  0.8692 -0.4412
18603THY    CP152376   8.188   6.210   3.178  0.5942 -0.4234  0.0214
18603THY    HP152377   8.175   6.119   3.238 -1.9556  0.6785  1.0185
18603THY    CP252378   8.065   6.228   3.089 -0.1908 -0.3617  0.3763
18603THY    HP252379   7.984   6.194   3.155  0.6783  0.7312  0.3616
18603THY    HP352380   8.067   6.164   3.000 -0.9942  1.0468 -1.7262
18603THY    HP452381   8.045   6.336   3.082  3.7885  1.4336  1.4443
18603THY    CP352382   8.191   6.317   3.290  0.1580 -0.2440  0.2574
18603THY    HP552383   8.270   6.298   3.363  0.3419 -0.3103  0.7633
18603THY    HP652384   8.100   6.309   3.352 -0.0944 -0.6949 -0.4527
18603THY    HP752385   8.198   6.417   3.247  2.2132 -2.2686 -0.6811
18603THY    CA352386   8.347   6.311   2.994 -0.7353 -0.5204 -0.4423
18603THY    HA352387   8.267   6.366   2.945 -0.4114 -0.5702 -0.0121
18603THY    CA452388   8.481   6.315   2.940  0.1867 -0.0814 -0.3094
18603THY    HA452389   8.490   6.387   2.859 -0.8086 -0.6275 -0.7755
18603THY    CA552390   8.580   6.229   2.982  1.0041 -0.3920 -0.0362
18603THY    CM152391   8.713   6.250   2.913  0.9266 -0.5079  0.6028
18603THY    HM152392   8.792   6.186   2.954  0.8191  1.6621  1.7568
18603THY    HM252393   8.746   6.352   2.940 -1.8229  0.3937  1.3456
18603THY    HM352394   8.702   6.232   2.806  2.2778 -0.1630 -2.9524
18603THY    CA652395   8.558   6.147   3.097 -0.8976  0.0025 -0.3084
18603THY    HA652396   8.640   6.086   3.133  0.6989  0.5783  2.0377
18604THY      O52397   4.093   3.989   5.044  0.0583 -0.6224 -0.2130
18604THY     HO52398   4.088   3.961   5.137  0.0044 -0.6714 -0.3622
18604THY    CA152399   4.079   3.879   4.968 -0.0710  0.2507  0.2426
18604THY    CA252400   4.084   3.871   4.829  0.6697  0.0312 -0.2792
18604THY    CP152401   4.101   3.992   4.748  0.1453 -0.1757 -0.0064
18604THY    HP152402   4.105   4.077   4.818 -1.0677 -1.7769  1.4239
18604THY    CP252403   3.978   4.027   4.664 -0.5018  0.3603 -0.4478
18604THY    HP252404   4.009   4.110   4.600  0.5851  1.2383 -0.1495
18604THY    HP352405   3.896   4.062   4.727 -0.7942 -0.5076  0.4791
18604THY    HP452406   3.945   3.936   4.612 -0.2947  0.3246 -0.5036
18604THY    CP352407   4.220   3.973   4.662  0.3107  0.1691  0.3467
18604THY    HP552408   4.268   4.058   4.614  0.2852  0.2873  0.4282
18604THY    HP652409   4.195   3.900   4.584  0.2849  1.3040 -0.8912
18604THY    HP752410   4.302   3.925   4.717  1.0858 -1.3038 -0.0892
18604THY    CA352411   4.075   3.737   4.772 -0.2468  0.3252  0.4211
18604THY    HA352412   4.087   3.725   4.665  1.5982  0.1380  2.9569
18604THY    CA452413   4.075   3.619   4.849 -0.0827  0.7521  0.4465
18604THY    HA452414   4.074   3.523   4.799 -1.4598  0.0503  0.7930
18604THY    CA552415   4.070   3.630   4.982 -0.0670  0.1034  1.2978
18604THY    CM152416   4.079   3.499   5.066 -0.0283  0.4544 -0.2310
18604THY    HM152417   4.175   3.504   5.118  0.0559  0.3600 -0.8229
18604THY    HM252418   4.086   3.405   5.011  3.2924  0.2227  0.0311
18604THY    HM352419   3.995   3.481   5.133 -0.2755  0.5144  1.0455
18604THY    CA652420   4.072   3.760   5.040  0.0175 -0.0500  0.5333
18604THY    HA652421   4.087   3.754   5.147 -0.1774 -0.0943 -1.2021
18605THY      O52422   8.213   3.131   5.022  0.3605 -1.0311  1.0302
18605THY     HO52423   8.240   3.080   4.943  2.0859  1.2697 -1.9069
18605THY    CA152424   8.107   3.210   4.996 -0.3365  0.3921 -0.2210
18605THY    CA252425   8.045   3.285   5.098 -0.3430  0.0867 -0.0366
18605THY    CP152426   8.086   3.254   5.245  0.0850  0.3123 -0.2316
18605THY    HP152427   8.193   3.236   5.255  0.4583 -1.2127  0.9309
18605THY    CP252428   8.008   3.131   5.301 -0.3665  0.3392 -0.7116
18605THY    HP252429   7.900   3.149   5.295 -0.6518 -1.2907 -2.6209
18605THY    HP352430   8.020   3.107   5.407 -1.9209  0.6558 -0.1709
18605THY    HP452431   8.040   3.042   5.245  2.8397 -1.4641  1.3894
18605THY    CP352432   8.051   3.376   5.337 -0.7426 -0.6683 -0.1120
18605THY    HP552433   8.121   3.371   5.422 -1.4986 -0.0771 -1.1876
18605THY    HP652434   7.952   3.374   5.383 -0.6195 -0.4249 -1.6597
18605THY    HP752435   8.066   3.474   5.291 -0.0566  2.5281  1.4090
18605THY    CA352436   7.949   3.383   5.064 -0.4922 -0.1511 -0.0054
18605THY    HA352437   7.897   3.436   5.143  0.5301  1.0573 -0.7474
18605THY    CA452438   7.918   3.407   4.929 -0.3662  0.0630 -1.1122
18605THY    HA452439   7.848   3.488   4.912 -0.5183  1.0742 -1.0189
18605THY    CA552440   7.971   3.329   4.826  0.1473 -0.2292 -0.3761
18605THY    CM152441   7.936   3.336   4.672  0.4793 -0.2706  0.5014
18605THY    HM152442   7.837   3.375   4.648  0.7528  0.5827  1.8125
18605THY    HM252443   7.951   3.244   4.616  0.8013  0.4809  0.0836
18605THY    HM352444   8.006   3.402   4.619  0.7043 -0.9268 -0.2420
18605THY    CA652445   8.065   3.222   4.862 -0.5976  0.7673  0.4527
18605THY    HA652446   8.118   3.166   4.786  0.0018 -0.6655  2.8111
18606THY      O52447   8.371   8.694   4.518  0.1636 -0.0257 -1.0601
18606THY     HO52448   8.363   8.635   4.595  0.1928  0.0726 -0.9375
18606THY    CA152449   8.502   8.733   4.506 -0.0335 -0.1036 -0.1693
18606THY    CA252450   8.555   8.784   4.390 -0.6575 -0.0804 -0.5585
18606THY    CP152451   8.479   8.792   4.263  0.1895  0.3914  0.0647
18606THY    HP152452   8.385   8.737   4.279  1.0786  0.9047 -1.3622
18606THY    CP252453   8.553   8.724   4.152 -0.7383  0.2432 -0.1677
18606THY    HP252454   8.483   8.709   4.070  1.2449 -0.9474 -4.6444
18606THY    HP352455   8.582   8.621   4.177  2.3419 -0.5976  0.3960
18606THY    HP452456   8.645   8.777   4.124  0.4535  1.2163 -1.5958
18606THY    CP352457   8.456   8.938   4.226 -0.1540 -0.4990  0.0729
18606THY    HP552458   8.540   8.988   4.177  1.5602 -1.6472 -3.6316
18606THY    HP652459   8.435   8.994   4.318 -0.8266 -0.9775  0.6340
18606THY    HP752460   8.374   8.946   4.153 -0.5868  0.0604  0.8390
18606THY    CA352461   8.696   8.823   4.397 -0.1448  0.4844  0.7951
18606THY    HA352462   8.737   8.883   4.316 -0.0767  0.5029  0.7720
18606THY    CA452463   8.772   8.811   4.509 -0.0672 -0.3149 -0.5502
18606THY    HA452464   8.877   8.838   4.503 -0.3161 -1.0186  0.2789
18606THY    CA552465   8.716   8.747   4.621  0.1538  0.4768  0.2144
18606THY    CM152466   8.813   8.720   4.736 -0.3594 -0.1936 -0.2988
18606THY    HM152467   8.822   8.803   4.807  0.4985  0.2928 -0.7900
18606THY    HM252468   8.916   8.714   4.699 -0.6118 -1.0592  0.5451
18606THY    HM352469   8.783   8.629   4.790  1.4992  4.7057  1.6217
18606THY    CA652470   8.584   8.703   4.616 -0.5389  0.8812 -0.9086
18606THY    HA652471   8.543   8.656   4.705 -2.6754 -1.5225 -4.0443
18607THY      O52472   0.585   8.223   5.621 -0.2081 -0.4479 -0.3608
18607THY     HO52473   0.677   8.245   5.600 -0.4725 -0.3476  0.8793
18607THY    CA152474   0.515   8.316   5.546  0.4545 -0.2678 -0.3407
18607THY    CA252475   0.401   8.376   5.596  1.1019 -0.0253 -0.3644
18607THY    CP152476   0.348   8.341   5.733  0.1464  0.1458  0.2472
18607THY    HP152477   0.390   8.245   5.764 -2.4411 -1.0400 -1.3842
18607THY    CP252478   0.199   8.310   5.726  0.3441 -0.6405 -0.1356
18607THY    HP252479   0.179   8.222   5.663 -4.3669  0.8655 -0.4051
18607THY    HP352480   0.140   8.396   5.693  0.6223  1.2840  0.8505
18607THY    HP452481   0.168   8.300   5.831  1.9502 -0.1394 -0.0942
18607THY    CP352482   0.386   8.443   5.839 -0.6849 -0.4483 -0.4721
18607THY    HP552483   0.335   8.539   5.824  1.2395  0.1713  0.6879
18607THY    HP652484   0.492   8.468   5.840 -0.7270  0.7526 -0.2460
18607THY    HP752485   0.350   8.407   5.936 -0.8249  0.0598  0.9797
18607THY    CA352486   0.348   8.480   5.513 -0.2228  0.2352  0.4110
18607THY    HA352487   0.261   8.541   5.537 -1.1119  0.6329 -0.9662
18607THY    CA452488   0.387   8.496   5.384 -0.7483  0.0526  0.1821
18607THY    HA452489   0.333   8.565   5.320  2.8662 -3.7993 -0.1729
18607THY    CA552490   0.505   8.429   5.331  0.8886  0.3401  1.0023
18607THY    CM152491   0.557   8.450   5.195  0.6125  0.0510  0.8725
18607THY    HM152492   0.526   8.378   5.119  0.6310  0.2392  0.6641
18607THY    HM252493   0.667   8.454   5.200  0.7748  1.4383 -2.1686
18607THY    HM352494   0.525   8.550   5.167  0.1448  2.0536  1.3173
18607THY    CA652495   0.572   8.347   5.422 -0.3688  0.1384 -0.2900
18607THY    HA652496   0.669   8.305   5.398 -0.5517  0.2270 -0.7647
18608THY      O52497   6.430   2.947   5.756 -0.7303 -0.1047  0.1120
18608THY     HO52498   6.415   2.939   5.661 -2.0071 -0.2548  2.8912
18608THY    CA152499   6.534   2.863   5.798 -0.0036  0.7406 -0.1539
18608THY    CA252500   6.595   2.882   5.923  0.2180  0.1948  0.0324
18608THY    CP152501   6.552   2.989   6.014 -0.7594  0.5275  0.1412
18608THY    HP152502   6.513   3.073   5.955  3.9499 -1.9298  0.9375
18608THY    CP252503   6.666   3.058   6.093 -0.2052 -0.7156  0.0833
18608THY    HP252504   6.657   3.166   6.110 -0.9890 -1.1786  0.0992
18608THY    HP352505   6.762   3.048   6.040  0.1057  0.1606 -2.0618
18608THY    HP452506   6.693   2.995   6.178  2.6367 -0.9092  0.8693
18608THY    CP352507   6.436   2.955   6.104 -0.2996 -0.4411  0.2305
18608THY    HP552508   6.470   2.867   6.160  0.5191 -0.5088  0.5012
18608THY    HP652509   6.359   2.926   6.032  0.1912 -0.8268 -0.1309
18608THY    HP752510   6.408   3.037   6.172 -0.1729 -0.5351  0.3508
18608THY    CA352511   6.683   2.784   5.967  0.1886 -0.5988 -0.3249
18608THY    HA352512   6.732   2.784   6.064  0.7357 -0.7996 -2.8125
18608THY    CA452513   6.722   2.685   5.873  0.0875 -0.2284  0.2120
18608THY    HA452514   6.793   2.611   5.906  0.1208 -1.3379 -0.2684
18608THY    CA552515   6.668   2.684   5.738  0.6038  0.7003 -0.2221
18608THY    CM152516   6.702   2.577   5.643 -0.4110  0.5020  0.2037
18608THY    HM152517   6.624   2.501   5.637  0.7599  1.4805 -1.1264
18608THY    HM252518   6.785   2.507   5.663 -2.2063  0.7234 -1.9876
18608THY    HM352519   6.719   2.635   5.552  2.3997 -0.3388 -1.7210
18608THY    CA652520   6.573   2.772   5.704  0.5578  0.1354 -0.4830
18608THY    HA652521   6.531   2.781   5.604 -0.0758  0.3984 -0.4864
18609THY      O52522   7.257   8.243   5.022  0.1493 -0.2063  0.0048
18609THY     HO52523   7.244   8.178   5.093 -2.8470 -0.1746  0.5153
18609THY    CA152524   7.175   8.351   5.061  0.0076 -0.2558  0.1219
18609THY    CA252525   7.186   8.477   5.003  0.6535  0.0430  0.7932
18609THY    CP152526   7.279   8.503   4.880 -0.0288  0.4600  0.1015
18609THY    HP152527   7.293   8.416   4.814  2.7433 -2.2325  2.3901
18609THY    CP252528   7.419   8.555   4.930 -0.0520 -0.5216 -0.6629
18609THY    HP252529   7.452   8.485   5.007  1.9581 -0.7488 -0.0324
18609THY    HP352530   7.412   8.653   4.979  7.5321  1.7834 -0.6214
18609THY    HP452531   7.497   8.562   4.852 -1.7389 -2.3682 -1.3726
18609THY    CP352532   7.217   8.606   4.784  0.7478 -0.3681 -0.8905
18609THY    HP552533   7.225   8.710   4.818 -0.7662  0.4458 -1.0113
18609THY    HP652534   7.112   8.581   4.762  0.7652 -0.3886 -0.9428
18609THY    HP752535   7.272   8.605   4.689  1.2844 -0.0816  0.1278
18609THY    CA352536   7.118   8.584   5.065 -0.4846  0.0853 -0.5483
18609THY    HA352537   7.117   8.683   5.019 -0.9330  1.2496  0.0026
18609THY    CA452538   7.048   8.561   5.187  0.1192  0.2306 -0.0368
18609THY    HA452539   6.990   8.644   5.227  0.5043 -0.0454  0.3641
18609THY    CA552540   7.039   8.430   5.234 -0.0085 -0.4300  0.4584
18609THY    CM152541   6.964   8.394   5.356 -0.2746  0.4807  0.3341
18609THY    HM152542   6.906   8.301   5.346  0.0410 -0.3916  0.2152
18609THY    HM252543   6.893   8.475   5.376  0.3994 -1.5556  1.5031
18609THY    HM352544   7.021   8.382   5.448  0.0592  0.3025  0.5303
18609THY    CA652545   7.109   8.324   5.177 -0.6399  0.2961  0.1385
18609THY    HA652546   7.103   8.228   5.226  0.6889 -2.5272 -1.5106
18610THY      O52547   3.609   0.690   3.263  0.7682  0.0709 -0.5852
18610THY     HO52548   3.547   0.746   3.313  1.2056  0.1069 -0.1309
18610THY    CA152549   3.686   0.628   3.350  0.0939  0.2616  0.2195
18610THY    CA252550   3.792   0.545   3.307 -0.4634 -0.5455 -0.4011
18610THY    CP152551   3.830   0.534   3.160 -0.1709  0.1221  0.0217
18610THY    HP152552   3.785   0.615   3.102 -0.8646 -0.2352 -0.6030
18610THY    CP252553   3.777   0.413   3.096  0.6191  0.5582 -0.0256
18610THY    HP252554   3.668   0.411   3.103  0.6519  1.8664  1.2373
18610THY    HP352555   3.804   0.315   3.136 -1.1096  4.9857  1.0717
18610THY    HP452556   3.807   0.412   2.990 -1.2146  0.0096  0.0052
18610THY    CP352557   3.980   0.553   3.146 -0.2689 -0.0793  0.3213
18610THY    HP552558   4.025   0.459   3.180 -1.9773  1.5586  0.0483
18610THY    HP652559   4.017   0.643   3.195  0.0854 -1.7521  1.1348
18610THY    HP752560   4.006   0.571   3.040 -2.7087 -1.1412 -1.8467
18610THY    CA352561   3.856   0.460   3.407 -0.0339 -0.0094  0.4312
18610THY    HA352562   3.937   0.393   3.379  1.3210 -1.0597  2.4212
18610THY    CA452563   3.814   0.472   3.541 -0.3626  0.0522 -0.2114
18610THY    HA452564   3.863   0.409   3.615 -0.2681  1.4332  1.4267
18610THY    CA552565   3.720   0.567   3.584 -0.6107  0.0775  0.1612
18610THY    CM152566   3.677   0.570   3.724  0.3900  1.1181  0.1529
18610THY    HM152567   3.646   0.672   3.748  0.1762  2.5382 -0.2222
18610THY    HM252568   3.757   0.549   3.796  0.1544  1.4496  0.3882
18610THY    HM352569   3.589   0.507   3.741 -0.7932 -0.7333  1.2288
18610THY    CA652570   3.651   0.638   3.483  0.2256 -0.2819  0.5346
18610THY    HA652571   3.580   0.714   3.515  0.2043 -0.1281  0.4493
18611THY      O52572   5.419   4.178   6.339  0.4442 -0.5700 -0.2291
18611THY     HO52573   5.345   4.130   6.299  1.1898 -1.9471 -0.2948
18611THY    CA152574   5.500   4.074   6.377 -0.1018 -0.3044 -0.0767
18611THY    CA252575   5.635   4.111   6.404  0.2667  0.6235 -0.0953
18611THY    CP152576   5.677   4.256   6.413 -0.0146 -0.1901  0.3141
18611THY    HP152577   5.615   4.325   6.355  1.1307  0.8436  2.3149
18611THY    CP252578   5.822   4.275   6.367  0.0737  0.0133  0.6972
18611THY    HP252579   5.839   4.382   6.349  0.5961  0.6045  0.7169
18611THY    HP352580   5.841   4.230   6.268 -0.4800 -0.1391  0.7984
18611THY    HP452581   5.898   4.251   6.442  0.5253  0.0237  2.0908
18611THY    CP352582   5.673   4.301   6.560  0.0706  0.5373  0.4044
18611THY    HP552583   5.707   4.406   6.568  1.2545 -0.7207  0.1412
18611THY    HP652584   5.742   4.242   6.622 -1.0481 -0.7739 -2.4445
18611THY    HP752585   5.575   4.298   6.608 -0.3738 -0.2572  1.5401
18611THY    CA352586   5.723   4.005   6.453  0.3161 -0.0947 -0.2104
18611THY    HA352587   5.822   4.023   6.493  0.9354 -2.2572  1.5630
18611THY    CA452588   5.677   3.873   6.437  0.2774  0.9268  1.1495
18611THY    HA452589   5.738   3.788   6.465 -2.4658 -1.3716 -1.8136
18611THY    CA552590   5.548   3.845   6.389 -0.4388  0.3922 -0.5038
18611THY    CM152591   5.506   3.701   6.372 -0.0262  0.5251  0.3803
18611THY    HM152592   5.420   3.677   6.436  0.8990  1.9417  0.7056
18611THY    HM252593   5.589   3.637   6.405  0.5965  1.3936  1.5832
18611THY    HM352594   5.477   3.685   6.268  0.3510  0.2128  1.5892
18611THY    CA652595   5.458   3.942   6.364  0.6420  0.6980 -0.4778
18611THY    HA652596   5.356   3.923   6.330  0.0918  0.6911  2.1903
18612THY      O52597   3.561   8.103   2.633 -0.7154 -0.2705 -0.7021
18612THY     HO52598   3.562   8.197   2.658 -1.7630 -2.3351 -0.0832
18612THY    CA152599   3.645   8.040   2.720 -0.1155  0.1022  0.6908
18612THY    CA252600   3.658   7.898   2.724  0.1328  0.1771  0.5329
18612THY    CP152601   3.573   7.813   2.623  0.0358  0.0294  0.0749
18612THY    HP152602   3.497   7.881   2.585  0.6307 -2.1405 -0.4025
18612THY    CP252603   3.506   7.691   2.687 -0.0774  0.2728 -0.4610
18612THY    HP252604   3.425   7.728   2.751  1.3858  1.9733 -0.1090
18612THY    HP352605   3.585   7.631   2.733  1.7248  1.1751  2.3912
18612THY    HP452606   3.467   7.636   2.600  0.1462  0.9824 -1.7753
18612THY    CP352607   3.657   7.773   2.512  0.2516  0.4739  0.2802
18612THY    HP552608   3.725   7.697   2.553  3.1061 -0.7054  2.0694
18612THY    HP652609   3.716   7.852   2.464  0.2374 -0.7645 -0.4332
18612THY    HP752610   3.605   7.726   2.427 -2.7882  0.4524  3.2636
18612THY    CA352611   3.750   7.842   2.812  0.4933  0.2545  0.5235
18612THY    HA352612   3.770   7.735   2.821 -1.3555  0.9512  0.2057
18612THY    CA452613   3.835   7.929   2.884 -0.5764 -0.2843  0.4440
18612THY    HA452614   3.924   7.890   2.933 -0.4359  0.7756  2.0162
18612THY    CA552615   3.832   8.065   2.861  0.1415  0.5832 -0.1313
18612THY    CM152616   3.936   8.149   2.933  0.1872  0.4024 -0.1096
18612THY    HM152617   3.910   8.255   2.934  1.1735 -1.5696  0.1812
18612THY    HM252618   4.038   8.149   2.895 -0.2466 -0.7984  0.7556
18612THY    HM352619   3.940   8.119   3.039  3.2141  1.1300  2.3775
18612THY    CA652620   3.738   8.122   2.777  0.5906  0.7487  0.2503
18612THY    HA652621   3.739   8.228   2.755  0.0724 -0.8579 -0.0418
18613THY      O52622   6.151   8.822   7.737 -0.2638  0.0057  0.0544
18613THY     HO52623   6.117   8.733   7.753 -1.1065 -2.5098 -0.1642
18613THY    CA152624   6.052   8.891   7.672 -0.1039 -0.1332 -0.4038
18613THY    CA252625   6.079   8.999   7.583  0.6877  0.2654  0.1642
18613THY    CP152626   6.225   9.044   7.559  0.1546  0.2288  0.1139
18613THY    HP152627   6.285   9.028   7.650 -1.4420  1.5387  1.2891
18613THY    CP252628   6.249   9.189   7.511 -0.3538 -0.5569  0.1473
18613THY    HP252629   6.354   9.216   7.522 -0.1121 -1.2880 -0.4660
18613THY    HP352630   6.195   9.258   7.576 -0.3981 -0.9044  0.4453
18613THY    HP452631   6.221   9.217   7.409  0.4167 -0.4705  1.3062
18613THY    CP352632   6.281   8.938   7.460 -0.4018 -0.7533  0.3746
18613THY    HP552633   6.242   8.836   7.466 -1.6074 -1.1457  0.8019
18613THY    HP652634   6.391   8.943   7.467 -0.3726 -1.5611  1.3020
18613THY    HP752635   6.252   8.971   7.359 -1.8272 -0.1969  0.8948
18613THY    CA352636   5.976   9.052   7.505  0.5069  0.1293  0.0679
18613THY    HA352637   5.984   9.130   7.431  0.2276 -0.0553 -0.0782
18613THY    CA452638   5.850   9.008   7.530 -0.3639 -0.2696 -0.1930
18613THY    HA452639   5.779   9.065   7.471 -0.1335 -0.8447 -0.4956
18613THY    CA552640   5.815   8.904   7.625  0.1594 -1.0292  0.4390
18613THY    CM152641   5.673   8.869   7.656  0.1850 -0.4886 -0.5072
18613THY    HM152642   5.603   8.919   7.588  0.2406 -2.7702 -3.2692
18613THY    HM252643   5.649   8.895   7.760 -1.9440 -1.6013  2.6805
18613THY    HM352644   5.664   8.760   7.657  0.7069 -0.6900 -0.5538
18613THY    CA652645   5.918   8.846   7.692 -0.6069 -0.6075  0.3122
18613THY    HA652646   5.901   8.768   7.766  0.6860 -1.8491 -1.2158
18614THY      O52647   0.601   2.505   4.122  0.0193  0.2477 -0.5006
18614THY     HO52648   0.540   2.479   4.052  0.3112 -1.4073  2.7798
18614THY    CA152649   0.569   2.433   4.241  0.5001  0.5013 -0.0147
18614THY    CA252650   0.617   2.465   4.368  0.2132 -0.5882 -0.1960
18614THY    CP152651   0.721   2.579   4.380  0.4827  0.7320 -0.7029
18614THY    HP152652   0.705   2.641   4.291  1.3879  0.6235 -0.5983
18614THY    CP252653   0.865   2.524   4.380 -0.0388  0.8644 -0.3004
18614THY    HP252654   0.867   2.471   4.475 -3.6379  0.0739 -2.2380
18614THY    HP352655   0.944   2.598   4.388 -2.0868 -0.0768  2.1374
18614THY    HP452656   0.894   2.458   4.297 -0.0094  2.1456 -1.9524
18614THY    CP352657   0.709   2.664   4.507  0.3745  0.3681 -0.3815
18614THY    HP552658   0.608   2.706   4.512  1.1278 -0.4142  1.6611
18614THY    HP652659   0.781   2.746   4.503 -1.3511  1.2641  1.2665
18614THY    HP752660   0.727   2.605   4.598  1.8429 -0.8102 -1.8443
18614THY    CA352661   0.578   2.387   4.477 -1.1591 -0.1885  0.2151
18614THY    HA352662   0.613   2.410   4.578  0.0667 -0.4418 -0.4340
18614THY    CA452663   0.497   2.279   4.454  0.2349 -0.9163 -0.1627
18614THY    HA452664   0.458   2.223   4.538  0.1652  0.8826  2.3997
18614THY    CA552665   0.447   2.254   4.329  0.1337 -0.1079  0.0762
18614THY    CM152666   0.341   2.143   4.307  0.3423 -0.4194  0.0960
18614THY    HM152667   0.392   2.054   4.267 -1.5255 -1.3572 -0.6127
18614THY    HM252668   0.271   2.192   4.239  1.6192 -0.3379  2.1643
18614THY    HM352669   0.276   2.124   4.393 -0.9656 -1.7145 -1.5764
18614THY    CA652670   0.492   2.321   4.219  0.3665 -0.1373 -0.5058
18614THY    HA652671   0.457   2.289   4.121 -0.7073 -0.0188  0.2378
18615THY      O52672   3.995   6.748   3.117  0.6732 -0.1104 -0.8184
18615THY     HO52673   3.961   6.673   3.170 -2.5284 -1.0292 -0.1701
18615THY    CA152674   4.131   6.749   3.124  0.9656 -0.6096  0.0594
18615THY    CA252675   4.193   6.857   3.179  0.1903 -0.2527  0.0585
18615THY    CP152676   4.106   6.962   3.248  0.2782  0.3246  0.0170
18615THY    HP152677   4.004   6.963   3.208 -0.6729  2.3613 -2.8285
18615THY    CP252678   4.150   7.100   3.198  0.1558  0.4046 -1.1052
18615THY    HP252679   4.162   7.106   3.089  0.2737  0.4455 -0.5280
18615THY    HP352680   4.243   7.137   3.243 -0.3947  0.3511  0.3995
18615THY    HP452681   4.080   7.178   3.229  0.7204 -1.6333  0.2785
18615THY    CP352682   4.102   6.939   3.397 -0.1073  0.1782  0.0785
18615THY    HP552683   4.038   7.017   3.441  0.5218  0.5003  0.4210
18615THY    HP652684   4.196   6.956   3.451 -2.1444  3.8231  0.8726
18615THY    HP752685   4.060   6.838   3.408  1.7158  1.3155 -0.6052
18615THY    CA352686   4.326   6.849   3.206 -0.1354  0.4393 -0.1134
18615THY    HA352687   4.382   6.921   3.265 -0.5324  1.1732 -0.3962
18615THY    CA452688   4.405   6.744   3.157 -0.5280 -0.4985  0.9688
18615THY    HA452689   4.510   6.735   3.183 -0.4001 -0.1200  3.0995
18615THY    CA552690   4.339   6.630   3.109  0.0202  0.3405 -0.5788
18615THY    CM152691   4.424   6.512   3.075  0.3891  0.1219  0.4368
18615THY    HM152692   4.376   6.422   3.034  0.6778  1.9553 -0.6110
18615THY    HM252693   4.463   6.462   3.165 -1.1973  0.3603 -0.4435
18615THY    HM352694   4.493   6.544   2.996 -1.5592 -1.5686  0.6942
18615THY    CA652695   4.201   6.638   3.089  0.2289 -0.1781  0.9488
18615THY    HA652696   4.142   6.553   3.057  0.6060 -0.0820  0.6433
18616THY      O52697   3.401   3.692   5.744  0.3442  0.4274 -0.4106
18616THY     HO52698   3.345   3.639   5.685  1.3674  0.3654 -1.4402
18616THY    CA152699   3.505   3.617   5.776 -0.2934 -0.1017  0.4803
18616THY    CA252700   3.618   3.676   5.822 -0.4680  0.1977  0.7649
18616THY    CP152701   3.625   3.826   5.826  0.2224  0.3144 -0.3138
18616THY    HP152702   3.577   3.862   5.735  0.2306  0.2161 -0.5485
18616THY    CP252703   3.766   3.887   5.836  0.0520  0.2411  0.1475
18616THY    HP252704   3.821   3.852   5.924  1.9767 -0.9453  0.0152
18616THY    HP352705   3.753   3.996   5.830 -1.3561 -0.2165 -0.0232
18616THY    HP452706   3.818   3.849   5.747  0.4357  0.4172  0.2587
18616THY    CP352707   3.536   3.887   5.934 -0.5209 -0.5355  0.0199
18616THY    HP552708   3.596   3.907   6.024 -1.3615 -0.1712  1.0174
18616THY    HP652709   3.463   3.814   5.971 -0.5576 -0.5628  0.0429
18616THY    HP752710   3.475   3.975   5.910 -3.0547 -0.1571 -1.5276
18616THY    CA352711   3.730   3.585   5.848  0.2137  0.0087  0.2034
18616THY    HA352712   3.830   3.622   5.871  0.0921 -0.7399  1.0408
18616THY    CA452713   3.719   3.446   5.839 -0.0385 -0.7077  0.2299
18616THY    HA452714   3.806   3.385   5.858  0.3106  1.1632  1.2464
18616THY    CA552715   3.594   3.387   5.808 -0.4431  0.2759 -0.4341
18616THY    CM152716   3.575   3.243   5.808  0.4003 -0.7931  0.8235
18616THY    HM152717   3.547   3.202   5.906  0.7300 -0.4324  1.4395
18616THY    HM252718   3.668   3.188   5.787  1.3653  0.9709  1.6888
18616THY    HM352719   3.501   3.220   5.731  0.7862 -1.3834  1.4980
18616THY    CA652720   3.484   3.475   5.779 -0.8057 -0.2444  0.5965
18616THY    HA652721   3.384   3.440   5.756 -0.9784  0.3196  0.6961
18617THY      O52722   1.071   7.228   4.585  0.1483 -0.8938  0.1690
18617THY     HO52723   1.098   7.265   4.499  0.9615 -0.8005 -0.1902
18617THY    CA152724   1.089   7.324   4.683 -0.8675  0.1751 -0.9572
18617THY    CA252725   1.023   7.322   4.806 -0.2329 -0.5129 -0.1236
18617THY    CP152726   0.917   7.212   4.829 -0.2032  0.0267  0.0688
18617THY    HP152727   0.925   7.134   4.752 -1.5032  0.6105 -0.6736
18617THY    CP252728   0.770   7.262   4.839 -0.3417  0.0500 -0.0703
18617THY    HP252729   0.761   7.320   4.932  0.0313 -0.1787  0.3643
18617THY    HP352730   0.704   7.177   4.853 -0.8575 -1.1101  0.1232
18617THY    HP452731   0.744   7.300   4.740 -0.5877  0.5214  1.0411
18617THY    CP352732   0.952   7.129   4.962  0.2005  0.7772  0.1730
18617THY    HP552733   0.918   7.025   4.954  1.1160  0.6735 -0.1280
18617THY    HP652734   0.906   7.181   5.047  2.4436  1.1469  1.6913
18617THY    HP752735   1.060   7.134   4.978  0.5576 -1.3576  0.0393
18617THY    CA352736   1.066   7.407   4.912  0.6764  0.4603  0.7480
18617THY    HA352737   1.017   7.398   5.009 -0.4032 -0.2674 -2.9787
18617THY    CA452738   1.174   7.502   4.889 -0.3796  0.0402  0.0382
18617THY    HA452739   1.206   7.558   4.976 -0.4288  0.0961 -0.0203
18617THY    CA552740   1.222   7.516   4.755 -0.3798  0.2842 -0.5051
18617THY    CM152741   1.323   7.618   4.720  0.5815  0.4233 -0.4198
18617THY    HM152742   1.285   7.683   4.640 -0.3355  0.4951 -0.8591
18617THY    HM252743   1.417   7.581   4.677  0.8689 -0.1737  0.9151
18617THY    HM352744   1.345   7.683   4.805 -1.4978  0.3084  0.5092
18617THY    CA652745   1.187   7.422   4.653 -0.3616  0.1039  0.4129
18617THY    HA652746   1.233   7.421   4.555 -1.7448 -0.6091 -1.6050
18618THY      O52747   9.460   1.188   4.333 -0.2344  0.7412 -0.4082
18618THY     HO52748   9.539   1.143   4.299  0.6217 -0.7308  2.0034
18618THY    CA152749   9.358   1.135   4.264  0.3233  0.2506  0.2897
18618THY    CA252750   9.222   1.173   4.282 -0.0367  0.4664 -0.1180
18618THY    CP152751   9.178   1.305   4.356  0.0437 -0.2277  0.6469
18618THY    HP152752   9.076   1.316   4.319 -0.4708  0.4070 -1.4496
18618THY    CP252753   9.239   1.436   4.309 -0.0478  0.3212  0.5433
18618THY    HP252754   9.195   1.521   4.363  1.2955 -0.3728  1.7345
18618THY    HP352755   9.211   1.447   4.204 -0.8044  0.5861  1.2345
18618THY    HP452756   9.349   1.433   4.308 -0.0345 -1.2594  0.6753
18618THY    CP352757   9.171   1.293   4.511 -0.4207  0.8996  0.8223
18618THY    HP552758   9.262   1.237   4.534 -0.2032 -1.5162  0.0463
18618THY    HP652759   9.086   1.232   4.545 -0.4746 -0.8321 -0.1501
18618THY    HP752760   9.164   1.390   4.562  0.3076  0.0724  1.3223
18618THY    CA352761   9.116   1.104   4.209  0.1662  0.1576  0.1754
18618THY    HA352762   9.014   1.142   4.218 -0.4033  1.5148 -1.5141
18618THY    CA452763   9.150   0.999   4.126 -0.3699 -0.0674 -0.5333
18618THY    HA452764   9.081   0.956   4.053 -0.3874 -0.6637  0.4894
18618THY    CA552765   9.279   0.946   4.128 -0.2070  0.2447 -0.8095
18618THY    CM152766   9.309   0.825   4.043  0.1429  0.1037  0.0402
18618THY    HM152767   9.236   0.809   3.963  0.1440  0.0915  0.0962
18618THY    HM252768   9.305   0.725   4.090  1.1590 -0.2118 -0.1613
18618THY    HM352769   9.407   0.836   3.994  0.3054  0.1444 -1.0262
18618THY    CA652770   9.381   1.017   4.192  0.7707 -0.3674  0.0643
18618THY    HA652771   9.483   0.983   4.186  0.6061 -0.5428 -0.4092
18619THY      O52772   6.307   1.723   5.886  0.1410  0.1274 -0.1019
18619THY     HO52773   6.303   1.717   5.789 -2.4309  0.1308  0.5531
18619THY    CA152774   6.280   1.599   5.928  0.8992  0.2077 -0.4328
18619THY    CA252775   6.204   1.580   6.050 -0.5322 -0.0438  0.2336
18619THY    CP152776   6.145   1.701   6.133 -0.6698 -0.0709 -0.1670
18619THY    HP152777   6.201   1.795   6.129 -0.9561  2.1764  0.1422
18619THY    CP252778   6.135   1.674   6.273  0.5632  0.3646 -0.6709
18619THY    HP252779   6.068   1.594   6.305  0.1665 -1.4059 -1.0813
18619THY    HP352780   6.101   1.767   6.320 -0.4782 -1.0196 -0.3250
18619THY    HP452781   6.237   1.650   6.306  1.0371  0.0876  0.8325
18619THY    CP352782   6.011   1.739   6.071  0.2793 -0.4227  0.3840
18619THY    HP552783   5.930   1.684   6.121 -0.1744 -1.9662 -0.4205
18619THY    HP652784   5.999   1.721   5.963 -0.9418 -0.6028  2.0723
18619THY    HP752785   6.004   1.847   6.087  3.6249  1.9079  0.4209
18619THY    CA352786   6.195   1.443   6.100 -0.6779 -0.4180  0.3553
18619THY    HA352787   6.135   1.417   6.187  0.7260  0.0831 -1.4053
18619THY    CA452788   6.257   1.336   6.022 -0.4655 -0.0213 -0.0950
18619THY    HA452789   6.251   1.232   6.052  0.7808 -0.1648 -0.2294
18619THY    CA552790   6.338   1.364   5.915  0.2283 -0.4594 -0.2477
18619THY    CM152791   6.403   1.248   5.837 -0.2156  0.8058  0.3451
18619THY    HM152792   6.465   1.190   5.906 -1.8358  2.2348  0.2406
18619THY    HM252793   6.468   1.277   5.753 -2.5049 -0.5794  1.7970
18619THY    HM352794   6.326   1.174   5.815 -0.9109  0.7380  1.0708
18619THY    CA652795   6.336   1.493   5.856  0.1329 -0.5910  0.3380
18619THY    HA652796   6.377   1.515   5.759 -0.5763 -1.4606 -1.8794
18620THY      O52797   5.847   9.007   2.875 -0.5532  0.4675  0.5165
18620THY     HO52798   5.787   8.937   2.907  1.2502  0.4642 -1.1188
18620THY    CA152799   5.771   9.119   2.851 -0.0380  0.0333 -0.2003
18620THY    CA252800   5.821   9.245   2.811 -0.5871 -0.3670 -1.0348
18620THY    CP152801   5.968   9.244   2.778 -0.0538  0.0191 -0.4284
18620THY    HP152802   6.000   9.145   2.744 -0.9627  1.9651 -1.4369
18620THY    CP252803   6.048   9.298   2.894 -0.4984  0.0157 -0.2602
18620THY    HP252804   6.013   9.399   2.920 -0.8815  0.1636 -0.4302
18620THY    HP352805   6.154   9.306   2.869 -0.8881 -1.1223  2.2122
18620THY    HP452806   6.053   9.238   2.986  1.0701  0.2025  0.0994
18620THY    CP352807   5.998   9.342   2.658  0.1089  0.5656 -0.5330
18620THY    HP552808   6.104   9.340   2.631 -0.2122 -0.8168 -0.1243
18620THY    HP652809   5.972   9.447   2.675 -0.7639  0.4735 -0.7235
18620THY    HP752810   5.943   9.303   2.571 -1.1203  0.8714  0.4580
18620THY    CA352811   5.735   9.352   2.779  0.3967 -0.0472  0.5197
18620THY    HA352812   5.780   9.441   2.737  1.6692  0.0298 -0.0723
18620THY    CA452813   5.594   9.330   2.797 -0.1027  0.2718  0.4957
18620THY    HA452814   5.528   9.414   2.775 -0.1283  2.1946  1.0201
18620THY    CA552815   5.543   9.206   2.838 -0.2743  0.8222  0.0735
18620THY    CM152816   5.396   9.179   2.828 -0.9037 -0.1743 -0.0886
18620THY    HM152817   5.343   9.261   2.777  2.0484 -0.1104  2.0293
18620THY    HM252818   5.358   9.182   2.930 -1.5751 -0.4137 -0.2334
18620THY    HM352819   5.382   9.074   2.800  1.2137  1.2425 -0.7998
18620THY    CA652820   5.632   9.105   2.868 -0.2148  0.4619 -0.1326
18620THY    HA652821   5.591   9.008   2.897 -0.2718  0.6287 -0.0586
18621THY      O52822   6.450   1.973   4.672 -0.0226  0.2118 -0.6255
18621THY     HO52823   6.353   1.978   4.684  0.0277  0.2488  0.7506
18621THY    CA152824   6.468   2.042   4.554 -0.2330 -0.4025 -0.3842
18621THY    CA252825   6.590   2.032   4.477  0.2622  0.5372  0.2791
18621THY    CP152826   6.706   1.950   4.526 -0.0124  0.2233  0.7467
18621THY    HP152827   6.666   1.872   4.591  1.0787 -0.9692 -0.8625
18621THY    CP252828   6.822   2.019   4.605  0.7889 -0.7503 -0.1021
18621THY    HP252829   6.881   2.097   4.555  0.8826  1.9706  1.6867
18621THY    HP352830   6.895   1.942   4.635 -0.0048  0.4887 -0.3983
18621THY    HP452831   6.777   2.068   4.692  0.2307 -1.5370  0.7960
18621THY    CP352832   6.778   1.893   4.399  0.5737  0.6995 -0.1481
18621THY    HP552833   6.860   1.957   4.364 -1.4175  0.1719  2.2261
18621THY    HP652834   6.716   1.866   4.313  0.5938  0.5888  0.1556
18621THY    HP752835   6.830   1.800   4.428 -1.0469 -0.0043 -1.3128
18621THY    CA352836   6.604   2.119   4.365  0.4224 -0.0687  0.1122
18621THY    HA352837   6.687   2.115   4.295 -1.3751 -2.3528  0.5730
18621THY    CA452838   6.492   2.190   4.325 -0.3564 -0.1204 -0.1108
18621THY    HA452839   6.505   2.257   4.240  1.2603 -0.0412 -0.2765
18621THY    CA552840   6.375   2.200   4.409  0.5579  0.0299  0.0538
18621THY    CM152841   6.262   2.288   4.354 -0.1971 -0.0318  0.4963
18621THY    HM152842   6.188   2.295   4.435  0.3202  0.6952 -1.8472
18621THY    HM252843   6.208   2.241   4.270  0.9939 -0.8916  0.6202
18621THY    HM352844   6.308   2.380   4.315  1.2738 -0.4386 -0.3889
18621THY    CA652845   6.360   2.120   4.520 -0.6390  0.3546 -1.2356
18621THY    HA652846   6.275   2.138   4.585  0.5654  1.3374  1.3543
18622THY      O52847   7.493   5.284   3.528 -0.1487 -0.2415  0.3312
18622THY     HO52848   7.577   5.302   3.572 -0.6276  0.6024  0.5577
18622THY    CA152849   7.413   5.238   3.627  0.5784  0.0873  0.2767
18622THY    CA252850   7.303   5.155   3.594 -0.2313  0.6110 -0.3146
18622THY    CP152851   7.291   5.094   3.457  0.0106  0.5847  1.0220
18622THY    HP152852   7.333   5.149   3.372 -0.4406 -1.1757 -1.1841
18622THY    CP252853   7.145   5.082   3.417 -0.3749  0.0571  0.5546
18622THY    HP252854   7.104   4.989   3.458  2.8303  0.4974 -0.7906
18622THY    HP352855   7.152   5.081   3.308 -0.4738 -0.0437  3.0711
18622THY    HP452856   7.085   5.171   3.443 -2.8959 -3.1739  0.0315
18622THY    CP352857   7.353   4.956   3.450  0.2754 -0.8184  0.3072
18622THY    HP552858   7.330   4.893   3.537  1.9815  0.1227  0.9187
18622THY    HP652859   7.462   4.972   3.452  0.4804  1.8250 -0.8415
18622THY    HP752860   7.322   4.905   3.359 -0.6614 -0.7815  0.7966
18622THY    CA352861   7.218   5.123   3.696 -0.9805  0.3918 -0.2706
18622THY    HA352862   7.126   5.071   3.672 -0.3911 -1.0599 -0.7099
18622THY    CA452863   7.246   5.167   3.826  0.7564 -0.4084  0.0866
18622THY    HA452864   7.179   5.131   3.903 -0.0697 -1.7344 -1.3593
18622THY    CA552865   7.344   5.260   3.854 -0.4227 -0.3499 -0.1161
18622THY    CM152866   7.361   5.323   3.989 -0.2009 -0.5907 -0.0554
18622THY    HM152867   7.459   5.366   4.011 -0.5140 -0.7709  0.7829
18622THY    HM252868   7.335   5.247   4.064 -2.2972  0.4043  1.5399
18622THY    HM352869   7.291   5.407   4.001  0.8388 -0.0537  0.7560
18622THY    CA652870   7.438   5.291   3.753 -0.1174  0.2658 -0.6724
18622THY    HA652871   7.512   5.368   3.769 -1.7173 -2.9880  1.8239
18623THY      O52872   4.062   6.840   1.887  0.3453  0.3499 -0.3468
18623THY     HO52873   4.022   6.920   1.926  0.1622  0.6881 -0.6008
18623THY    CA152874   4.054   6.739   1.981  0.2534  0.3768 -0.8177
18623THY    CA252875   4.090   6.610   1.951 -1.0518 -0.0016 -0.3926
18623THY    CP152876   4.118   6.566   1.807  0.0424  0.7333  0.6895
18623THY    HP152877   4.148   6.650   1.744 -0.7848  0.1884  0.5833
18623THY    CP252878   4.006   6.486   1.731  0.2704  0.3740 -0.4010
18623THY    HP252879   3.970   6.404   1.795  0.3946 -0.8411 -1.4268
18623THY    HP352880   4.024   6.444   1.631  0.3053 -0.0154  0.5166
18623THY    HP452881   3.920   6.554   1.732  0.3343  0.4354 -0.3213
18623THY    CP352882   4.250   6.494   1.808 -0.3917  0.5203 -0.1612
18623THY    HP552883   4.302   6.480   1.713  3.1115  2.2899 -0.1596
18623THY    HP652884   4.238   6.394   1.853  3.0560  2.1135  0.0118
18623THY    HP752885   4.320   6.553   1.868  0.2580 -1.2342  0.9167
18623THY    CA352886   4.071   6.513   2.051 -0.0873 -0.6235  0.2817
18623THY    HA352887   4.105   6.413   2.027  2.5360  1.2281  0.6390
18623THY    CA452888   4.016   6.548   2.179  0.3824  1.0551  0.6879
18623THY    HA452889   3.992   6.469   2.248  0.5988 -2.1433 -2.4212
18623THY    CA552890   3.979   6.682   2.201  0.1190 -0.1656 -0.4589
18623THY    CM152891   3.900   6.707   2.324 -0.1547 -1.3682 -0.0335
18623THY    HM152892   3.951   6.672   2.414 -1.3139 -0.9834 -0.7872
18623THY    HM252893   3.808   6.647   2.323  0.2136 -1.2000 -0.6038
18623THY    HM352894   3.880   6.813   2.340 -0.9670 -0.1131 -0.3550
18623THY    CA652895   4.003   6.776   2.102 -0.3853  1.0928  0.0212
18623THY    HA652896   3.970   6.878   2.112 -1.3143 -0.4202 -0.1106
18624THY      O52897   8.144   2.274   2.108  0.2722  0.3044  0.2849
18624THY     HO52898   8.059   2.259   2.063  1.4823 -2.3814  0.8366
18624THY    CA152899   8.130   2.221   2.230 -0.4008  0.0325  0.0455
18624THY    CA252900   8.182   2.284   2.339 -0.5499 -0.0633 -0.1288
18624THY    CP152901   8.274   2.411   2.326 -0.3572 -0.2590 -0.3278
18624THY    HP152902   8.333   2.399   2.234  1.1455  0.8741 -2.3807
18624THY    CP252903   8.391   2.419   2.433  0.4860 -0.4837  0.4476
18624THY    HP252904   8.470   2.487   2.400  0.7328 -0.9780 -0.0747
18624THY    HP352905   8.431   2.318   2.451  1.3897  1.8497  1.1542
18624THY    HP452906   8.350   2.451   2.529  2.0958  1.1729 -2.1088
18624THY    CP352907   8.188   2.533   2.308  0.0644 -0.1077  0.2383
18624THY    HP552908   8.103   2.517   2.242 -0.4195  0.3729  0.7970
18624THY    HP652909   8.255   2.601   2.254  0.6151 -0.7857 -0.8067
18624THY    HP752910   8.151   2.566   2.406  0.4094  1.2315 -2.9696
18624THY    CA352911   8.143   2.239   2.466  0.5157 -0.3057 -0.0171
18624THY    HA352912   8.187   2.288   2.553  1.9154 -0.5589 -0.7652
18624THY    CA452913   8.058   2.125   2.485  0.0541  0.2831 -0.1126
18624THY    HA452914   8.032   2.077   2.578 -0.3542 -0.9527 -2.4119
18624THY    CA552915   8.020   2.057   2.372  0.2271 -0.1544  1.1684
18624THY    CM152916   7.936   1.928   2.398 -0.0315  0.6885 -0.1466
18624THY    HM152917   7.885   1.918   2.495 -0.2794  0.3491 -3.4296
18624THY    HM252918   7.991   1.835   2.379  1.8618 -2.2660  1.4037
18624THY    HM352919   7.847   1.932   2.333  0.3718  0.1896  1.4009
18624THY    CA652920   8.044   2.115   2.248  0.7878  0.0098  0.6823
18624THY    HA652921   8.005   2.067   2.158 -0.4617  0.4733  0.8134
18625THY      O52922   5.767   0.380   6.323 -0.1894  0.1809 -0.1717
18625THY     HO52923   5.745   0.450   6.387 -1.9457 -0.5037 -0.0438
18625THY    CA152924   5.748   0.433   6.198 -0.4811  0.0772 -0.2145
18625THY    CA252925   5.836   0.404   6.086 -0.1658  0.1094  0.4514
18625THY    CP152926   5.976   0.344   6.106 -0.0803  0.1158  0.4755
18625THY    HP152927   5.978   0.303   6.208 -0.4804 -0.1033 -0.1110
18625THY    CP252928   6.078   0.459   6.109  0.4058 -0.0629 -0.7146
18625THY    HP252929   6.074   0.516   6.016 -2.3671  0.9431  0.9551
18625THY    HP352930   6.182   0.430   6.128  1.6530 -2.6387  1.6557
18625THY    HP452931   6.045   0.529   6.187 -1.8715 -0.2926 -1.4804
18625THY    CP352932   6.023   0.245   5.992  0.1631 -0.8401  0.2730
18625THY    HP552933   5.976   0.146   6.002 -0.8823  0.1485  0.8465
18625THY    HP652934   6.131   0.229   6.004  0.4100  2.0042  3.1512
18625THY    HP752935   5.998   0.278   5.891 -0.3860 -1.4476 -1.8453
18625THY    CA352936   5.798   0.463   5.956  0.0882 -0.2202 -0.2045
18625THY    HA352937   5.852   0.453   5.862 -2.0369 -1.6219  0.7605
18625THY    CA452938   5.681   0.535   5.937  0.5172 -0.3362  0.1059
18625THY    HA452939   5.645   0.570   5.840 -1.7911 -0.1358 -1.4634
18625THY    CA552940   5.598   0.565   6.050 -0.0968 -0.6817  0.1530
18625THY    CM152941   5.466   0.638   6.024  0.2602  0.1560  0.5581
18625THY    HM152942   5.447   0.648   5.917  0.4541  0.3253  3.6099
18625THY    HM252943   5.470   0.735   6.074  0.3883  1.4621 -0.0964
18625THY    HM352944   5.377   0.588   6.065  0.4195  1.3886  1.2441
18625THY    CA652945   5.630   0.507   6.170  0.6879  0.8245  0.1190
18625THY    HA652946   5.548   0.504   6.241 -1.4285 -1.5028 -1.4150
18626THY      O52947   3.927   7.609   4.118 -0.7764  0.2262  0.0422
18626THY     HO52948   3.936   7.684   4.057 -2.0732  0.1557  0.1749
18626THY    CA152949   4.036   7.606   4.188  0.0263  0.6498 -0.0802
18626THY    CA252950   4.085   7.483   4.232 -0.3630  0.1845  0.2072
18626THY    CP152951   4.011   7.351   4.225  0.1175 -0.1550  0.3438
18626THY    HP152952   3.904   7.366   4.241  0.3290  1.1241  0.6543
18626THY    CP252953   4.051   7.238   4.319  0.1661 -0.1214  0.4105
18626THY    HP252954   4.052   7.274   4.423  1.3315 -0.2076  0.6904
18626THY    HP352955   4.150   7.200   4.289  0.2655  2.2135 -1.3486
18626THY    HP452956   3.981   7.155   4.304  1.1015 -0.2741 -0.3678
18626THY    CP352957   4.011   7.297   4.086 -0.3960  0.4354 -0.1112
18626THY    HP552958   3.964   7.378   4.029 -1.2064 -0.6345 -1.3000
18626THY    HP652959   3.953   7.204   4.085  0.3901 -0.5081 -0.5997
18626THY    HP752960   4.111   7.282   4.044 -0.7119 -0.6159  0.6101
18626THY    CA352961   4.212   7.493   4.305 -0.1738 -0.0919  0.0946
18626THY    HA352962   4.253   7.402   4.347 -2.7725  2.3960 -0.0775
18626THY    CA452963   4.274   7.622   4.321 -0.5783  0.7702  0.7655
18626THY    HA452964   4.362   7.627   4.385 -0.1743  0.3598 -0.6488
18626THY    CA552965   4.223   7.739   4.258 -0.7702  0.9974  1.0483
18626THY    CM152966   4.288   7.872   4.254 -0.2683 -0.4864 -0.2320
18626THY    HM152967   4.398   7.865   4.260 -0.2520 -1.6668 -1.2895
18626THY    HM252968   4.259   7.925   4.346  2.0229 -0.2827  0.8046
18626THY    HM352969   4.271   7.936   4.167  2.8865 -0.8497  0.3122
18626THY    CA652970   4.100   7.728   4.197  0.1454 -0.0189 -0.0486
18626THY    HA652971   4.058   7.824   4.168 -0.1935  1.0763  0.1375
18627THY      O52972   0.849   6.734   6.705 -0.2247 -0.6272  0.0337
18627THY     HO52973   0.910   6.807   6.721 -0.5455  1.5509 -0.1214
18627THY    CA152974   0.927   6.656   6.631 -0.5238 -0.1708 -0.0151
18627THY    CA252975   0.893   6.567   6.528 -0.5688  0.0270  0.2525
18627THY    CP152976   0.751   6.549   6.482 -0.5042  0.2852  0.4652
18627THY    HP152977   0.687   6.628   6.522  0.7414 -0.6709  2.0012
18627THY    CP252978   0.701   6.416   6.533  0.4603 -0.5291  1.3081
18627THY    HP252979   0.711   6.418   6.642  0.2360 -0.4600 -0.0542
18627THY    HP352980   0.761   6.333   6.494  1.1956  0.6026  1.2906
18627THY    HP452981   0.596   6.401   6.505  0.5879 -0.3038 -0.2100
18627THY    CP352982   0.735   6.566   6.328  0.3070 -0.6124 -0.3258
18627THY    HP552983   0.795   6.495   6.270  0.5526  0.3530 -0.9219
18627THY    HP652984   0.750   6.670   6.294 -1.0578  0.7906  0.3807
18627THY    HP752985   0.630   6.541   6.309 -0.0739 -1.0700  1.4211
18627THY    CA352986   0.994   6.490   6.456 -0.3000  0.3861 -0.7857
18627THY    HA352987   0.961   6.424   6.376 -0.6544 -0.0318 -0.1077
18627THY    CA452988   1.131   6.508   6.489  0.0391  0.8323  0.0772
18627THY    HA452989   1.212   6.458   6.437 -0.7336  0.1150 -0.4719
18627THY    CA552990   1.164   6.593   6.595 -0.7032  0.7469 -0.2666
18627THY    CM152991   1.309   6.624   6.620 -0.2659  0.2841 -0.4031
18627THY    HM152992   1.377   6.605   6.536 -1.3045 -0.1099 -2.6580
18627THY    HM252993   1.345   6.563   6.704 -0.1131  1.8207  1.6831
18627THY    HM352994   1.317   6.727   6.657 -2.1253 -1.5014  0.4572
18627THY    CA652995   1.062   6.663   6.673  0.1589  0.0578  0.6669
18627THY    HA652996   1.090   6.735   6.749  1.3450 -0.1582  0.4566
18628THY      O52997   5.228   5.303   5.277  0.1150  0.3302  0.4622
18628THY     HO52998   5.252   5.374   5.215 -2.9346 -0.4560  0.9473
18628THY    CA152999   5.147   5.222   5.208  0.2309 -0.1077  0.9237
18628THY    CA253000   5.078   5.114   5.268  0.4814  0.7213  0.2617
18628THY    CP153001   5.086   5.081   5.418  0.1235  0.1991  0.2506
18628THY    HP153002   5.172   5.134   5.460 -0.3444  0.9821  0.4086
18628THY    CP253003   5.112   4.923   5.445  0.1916  0.0097 -0.4239
18628THY    HP253004   5.146   4.893   5.544  0.0217 -0.2705 -1.5920
18628THY    HP353005   5.204   4.891   5.396 -0.4928 -0.6145 -1.4947
18628THY    HP453006   5.023   4.864   5.418  0.2937 -0.2502 -0.4594
18628THY    CP353007   4.975   5.124   5.504  0.0875  0.5802  0.4655
18628THY    HP553008   4.927   5.219   5.477 -0.8505 -0.6803 -0.3262
18628THY    HP653009   5.006   5.134   5.608 -0.3363  0.6886  0.6907
18628THY    HP753010   4.901   5.044   5.494  2.0391 -0.6993 -1.2861
18628THY    CA353011   4.987   5.045   5.189 -0.0849  0.0051  1.3113
18628THY    HA353012   4.916   4.976   5.233 -0.5419  1.5497  2.7145
18628THY    CA453013   4.987   5.060   5.052 -0.5194 -0.8592 -0.3445
18628THY    HA453014   4.925   5.001   4.985  1.3881 -1.8369 -1.3495
18628THY    CA553015   5.068   5.166   4.995 -0.3073 -0.2033  1.4257
18628THY    CM153016   5.051   5.183   4.845 -0.4034  0.2634  0.0639
18628THY    HM153017   5.117   5.114   4.791 -1.9686 -2.3738  0.5074
18628THY    HM253018   5.086   5.285   4.826  0.9793  0.5942 -0.3131
18628THY    HM353019   4.951   5.161   4.808 -0.0463  0.9331 -3.1548
18628THY    CA653020   5.142   5.250   5.075  0.1404  0.1398 -0.0194
18628THY    HA653021   5.211   5.318   5.025  0.0928 -1.0104 -0.7832
18629THY      O53022   6.706   8.427   4.486 -0.1878 -0.7798  0.5489
18629THY     HO53023   6.736   8.397   4.398  0.9232 -0.1640 -0.2127
18629THY    CA153024   6.792   8.376   4.581 -0.2543 -0.1030 -0.3291
18629THY    CA253025   6.772   8.392   4.719  0.1222  0.5597  0.5306
18629THY    CP153026   6.660   8.479   4.770 -0.4301 -0.8460 -0.3631
18629THY    HP153027   6.608   8.540   4.695  0.0770  0.2002  1.4050
18629THY    CP253028   6.702   8.589   4.872 -0.5157 -0.8309  0.8880
18629THY    HP253029   6.621   8.663   4.872 -0.2975 -2.7773  1.1722
18629THY    HP353030   6.792   8.635   4.829 -0.4330 -0.2766  1.2617
18629THY    HP453031   6.725   8.539   4.967 -0.1816 -1.0477  0.6282
18629THY    CP353032   6.551   8.394   4.839  0.4011  0.8733  0.0216
18629THY    HP553033   6.484   8.452   4.903  0.8067  0.2706  1.1848
18629THY    HP653034   6.597   8.316   4.901  0.5384 -0.7604 -1.2535
18629THY    HP753035   6.493   8.345   4.760  3.9291 -1.5161 -0.6793
18629THY    CA353036   6.858   8.331   4.809 -0.0151 -0.4593 -0.4849
18629THY    HA353037   6.835   8.346   4.914  2.9917  0.1684  0.2785
18629THY    CA453038   6.969   8.258   4.767 -0.2843 -0.0584 -0.4878
18629THY    HA453039   7.042   8.216   4.837 -2.0583  1.1904 -1.6338
18629THY    CA553040   6.997   8.265   4.629 -0.2041  0.2819  0.5016
18629THY    CM153041   7.131   8.210   4.593 -0.1733 -0.1687  0.3940
18629THY    HM153042   7.148   8.216   4.485 -2.6982 -0.6428  0.1394
18629THY    HM253043   7.158   8.111   4.631 -0.3169  0.3376  0.5462
18629THY    HM353044   7.211   8.277   4.627  0.4291 -1.6964  0.4878
18629THY    CA653045   6.912   8.320   4.538 -0.2463  0.3015 -0.0292
18629THY    HA653046   6.945   8.328   4.435 -1.0538 -0.0094 -0.5748
18630THY      O53047   4.523   1.152   4.966 -0.0941  0.4267 -0.0997
18630THY     HO53048   4.435   1.162   4.926 -0.4044  0.3409 -2.5528
18630THY    CA153049   4.484   1.111   5.092 -0.1066  0.4630  0.9494
18630THY    CA253050   4.573   1.053   5.178  0.1652 -0.6292  0.5863
18630THY    CP153051   4.720   1.025   5.139 -0.7831 -0.4056  0.3328
18630THY    HP153052   4.722   0.965   5.048 -1.6948  0.2840 -0.7860
18630THY    CP253053   4.797   0.935   5.230  0.4924  0.5537 -0.6497
18630THY    HP253054   4.752   0.836   5.240 -0.6663 -2.3859 -0.5263
18630THY    HP353055   4.818   0.970   5.332  0.1941 -0.1932  1.9855
18630THY    HP453056   4.895   0.930   5.181  0.8211  0.8909  1.3051
18630THY    CP353057   4.810   1.154   5.124  0.7951 -1.0591 -0.3382
18630THY    HP553058   4.769   1.237   5.067 -0.9278  2.8291  1.7373
18630THY    HP653059   4.912   1.133   5.088  1.6590  1.5909 -1.1163
18630THY    HP753060   4.826   1.204   5.220 -0.4751 -0.8052 -0.3975
18630THY    CA353061   4.531   1.017   5.307  0.2899  0.4501 -0.0353
18630THY    HA353062   4.598   0.970   5.378  2.5049  0.0791  2.3412
18630THY    CA453063   4.390   1.036   5.339 -0.2082 -0.8538  0.4540
18630THY    HA453064   4.350   1.017   5.437 -1.5207 -1.4287  0.1819
18630THY    CA553065   4.293   1.082   5.240 -0.2755 -0.4808 -0.2341
18630THY    CM153066   4.143   1.094   5.266  0.5832  0.3899  0.2842
18630THY    HM153067   4.096   1.039   5.348 -1.1069  0.1295  1.2719
18630THY    HM253068   4.087   1.065   5.175  0.6977  0.9918 -2.0403
18630THY    HM353069   4.116   1.195   5.299 -0.0629  0.4059  0.1093
18630THY    CA653070   4.337   1.126   5.115 -0.3578 -0.0116  0.0534
18630THY    HA653071   4.265   1.172   5.046  0.9628 -1.0423  0.6534
18631THY      O53072   5.369   2.135   1.970  0.1588  0.0235 -0.1374
18631THY     HO53073   5.459   2.114   1.940  0.4551  2.5949 -3.5047
18631THY    CA153074   5.391   2.173   2.098  0.1893  0.2758  0.4745
18631THY    CA253075   5.315   2.110   2.195  0.2427 -1.2484 -0.0898
18631THY    CP153076   5.199   2.019   2.158 -0.2762 -0.4225  0.4097
18631THY    HP153077   5.162   2.057   2.062  0.2378 -0.0923  1.8517
18631THY    CP253078   5.076   2.034   2.260 -0.7197 -0.5193  0.8289
18631THY    HP253079   4.988   1.996   2.207 -0.6356  1.2756 -2.1077
18631THY    HP353080   5.064   2.141   2.280 -3.4376  0.4241  0.4162
18631THY    HP453081   5.108   1.973   2.345 -0.2162  0.2300  2.0937
18631THY    CP353082   5.245   1.869   2.141  0.1856 -0.6018 -0.6449
18631THY    HP553083   5.257   1.815   2.236  1.9810 -1.2647 -1.4868
18631THY    HP653084   5.343   1.867   2.092  1.0769  1.0143  0.6341
18631THY    HP753085   5.179   1.809   2.077  2.4524 -0.6825 -3.2590
18631THY    CA353086   5.340   2.144   2.334  0.0793  0.2155  0.1265
18631THY    HA353087   5.282   2.094   2.411 -1.2622 -0.6178  0.3676
18631THY    CA453088   5.453   2.229   2.359  0.2686 -0.0256  0.2612
18631THY    HA453089   5.482   2.255   2.460  1.4931 -0.6359  1.3516
18631THY    CA553090   5.514   2.296   2.259  0.3243  0.2918  0.1245
18631THY    CM153091   5.634   2.388   2.289  0.1983  0.0695 -0.5150
18631THY    HM153092   5.665   2.464   2.216  1.7931  0.1364 -1.0695
18631THY    HM253093   5.724   2.337   2.324  1.4177  1.2303  2.1865
18631THY    HM353094   5.608   2.446   2.379  0.4135 -0.7012  0.8311
18631THY    CA653095   5.489   2.262   2.131  0.5271  0.0586  0.9341
18631THY    HA653096   5.545   2.307   2.050  1.1644  0.5788  1.0896
18632THY      O53097   0.874   3.671   3.539 -0.5482 -0.1622 -0.3365
18632THY     HO53098   0.853   3.653   3.445 -1.7715 -0.0891  0.5688
18632THY    CA153099   1.003   3.670   3.564 -0.6759  0.8464 -0.1876
18632THY    CA253100   1.054   3.758   3.654  0.0586  1.1861 -0.1327
18632THY    CP153101   0.969   3.843   3.749  0.7288  0.2333 -0.1004
18632THY    HP153102   0.877   3.874   3.698  0.7299  0.5367  0.4112
18632THY    CP253103   1.024   3.981   3.775  0.5133  0.0639  1.2280
18632THY    HP253104   1.125   3.973   3.816  0.3274  0.1209 -2.0548
18632THY    HP353105   0.959   4.040   3.842 -0.9729  0.0874 -0.3570
18632THY    HP453106   1.024   4.042   3.684  1.1862  0.0928  1.2760
18632THY    CP353107   0.925   3.767   3.875  0.2031 -0.2528 -0.8041
18632THY    HP553108   0.868   3.837   3.937 -1.3378 -1.2608 -1.1036
18632THY    HP653109   1.009   3.728   3.933  2.6307 -1.3444  2.4208
18632THY    HP753110   0.860   3.681   3.853 -0.0525  1.4404 -1.0789
18632THY    CA353111   1.197   3.758   3.672  0.3474  0.5004 -0.2593
18632THY    HA353112   1.242   3.819   3.749  0.8599 -0.2614  0.3291
18632THY    CA453113   1.278   3.686   3.582 -0.1037  0.8061  0.2617
18632THY    HA453114   1.386   3.684   3.592  0.0667 -0.5381  1.3105
18632THY    CA553115   1.221   3.601   3.486 -0.1201  0.7136  0.0883
18632THY    CM153116   1.305   3.533   3.388  0.1966  0.1644  0.7951
18632THY    HM153117   1.349   3.443   3.432 -0.9663 -0.3199 -0.0247
18632THY    HM253118   1.386   3.604   3.364  1.0916 -0.4887 -0.4165
18632THY    HM353119   1.256   3.501   3.296  0.6963  0.6647 -1.6224
18632THY    CA653120   1.078   3.591   3.473  1.0852 -0.9093 -0.0066
18632THY    HA653121   1.026   3.531   3.398 -0.1669 -1.0922  1.2620
18633THY      O53122   4.464   7.350   6.537  0.6164  0.4228  0.2945
18633THY     HO53123   4.454   7.259   6.569 -0.5179  1.7599  0.8666
18633THY    CA153124   4.427   7.351   6.410 -0.0727 -0.2184 -0.0290
18633THY    CA253125   4.474   7.446   6.321  0.6740  0.5920  0.6427
18633THY    CP153126   4.568   7.554   6.357 -0.8632  0.4414 -0.1460
18633THY    HP153127   4.619   7.537   6.452 -0.1597  0.1631  0.3518
18633THY    CP253128   4.488   7.677   6.379  0.5018 -0.0343 -0.2847
18633THY    HP253129   4.541   7.769   6.408 -0.9713 -1.1983  0.9764
18633THY    HP353130   4.417   7.666   6.462 -0.9358 -0.9203  1.6871
18633THY    HP453131   4.431   7.711   6.292 -0.9640 -0.0120 -2.5031
18633THY    CP353132   4.673   7.592   6.252 -0.1535 -0.0471 -0.3712
18633THY    HP553133   4.713   7.498   6.211  3.7940 -0.3968  1.2499
18633THY    HP653134   4.739   7.661   6.306  0.5189 -0.2100 -0.8791
18633THY    HP753135   4.636   7.638   6.160 -1.1538 -1.2163 -3.3268
18633THY    CA353136   4.424   7.430   6.185  0.1462  0.1124  0.3675
18633THY    HA353137   4.446   7.512   6.117 -0.6811  0.3226  0.7748
18633THY    CA453138   4.324   7.334   6.147 -0.4354  0.5226 -0.3699
18633THY    HA453139   4.282   7.341   6.048 -0.4781  0.6079  0.8543
18633THY    CA553140   4.279   7.252   6.238 -0.0533  0.2084  0.5204
18633THY    CM153141   4.174   7.154   6.213  0.6915  0.4465  0.1342
18633THY    HM153142   4.089   7.191   6.272  0.6492  0.4226  0.0740
18633THY    HM253143   4.203   7.055   6.250 -1.7260  1.5083 -0.2459
18633THY    HM353144   4.147   7.147   6.107 -0.5788  0.6641  1.2108
18633THY    CA653145   4.327   7.264   6.368 -0.2415 -0.4831  0.2768
18633THY    HA653146   4.292   7.199   6.447 -0.6264  2.1031  3.3426
18634THY      O53147   0.659   6.702   7.264  0.0592 -0.3888 -0.6841
18634THY     HO53148   0.591   6.710   7.195 -0.7455  0.5575  1.7037
18634THY    CA153149   0.730   6.583   7.241 -0.0737 -0.4192 -0.7161
18634THY    CA253150   0.778   6.495   7.342  0.0519  0.6263  0.0418
18634THY    CP153151   0.719   6.515   7.481 -0.0860  0.4208 -0.9000
18634THY    HP153152   0.690   6.621   7.493  0.5205 -0.8160 -0.5779
18634THY    CP253153   0.816   6.478   7.591 -0.3744  0.2077 -0.0167
18634THY    HP253154   0.912   6.531   7.588  0.3180  0.2748 -1.2177
18634THY    HP353155   0.847   6.372   7.596  1.4437 -0.3391  0.4418
18634THY    HP453156   0.776   6.506   7.690  1.7562  0.6455  1.7972
18634THY    CP353157   0.598   6.433   7.507 -0.0140 -0.0604  0.2403
18634THY    HP553158   0.610   6.325   7.489 -2.7464 -2.5422  0.2245
18634THY    HP653159   0.524   6.474   7.438 -0.1316  0.2003  0.4673
18634THY    HP753160   0.552   6.445   7.606  0.4676  0.1624  0.2639
18634THY    CA353161   0.856   6.377   7.308  0.0870 -0.7765  0.3174
18634THY    HA353162   0.874   6.302   7.385 -1.3625  0.8241  1.5296
18634THY    CA453163   0.882   6.346   7.169  0.0476  0.1401  0.1878
18634THY    HA453164   0.924   6.252   7.137 -1.1451  1.7654 -0.9498
18634THY    CA553165   0.848   6.440   7.067  0.5154  0.1688 -0.3473
18634THY    CM153166   0.860   6.421   6.919 -0.1221  0.8471 -0.1654
18634THY    HM153167   0.876   6.321   6.879 -0.2949 -1.5692  0.7248
18634THY    HM253168   0.938   6.485   6.876  0.4491  1.5120 -0.3987
18634THY    HM353169   0.772   6.464   6.871 -1.0989  2.0411 -0.7662
18634THY    CA653170   0.775   6.556   7.110  0.8066  0.0591  0.1679
18634THY    HA653171   0.749   6.621   7.027  1.0182 -1.7509 -1.9488
18635THY      O53172   1.043   6.374   1.736 -0.4946  0.0810  0.0842
18635THY     HO53173   1.072   6.296   1.785 -2.9165  0.0361 -0.9321
18635THY    CA153174   0.910   6.370   1.761 -0.4701  0.1353  0.1797
18635THY    CA253175   0.819   6.476   1.750  0.1618  0.5476  0.4051
18635THY    CP153176   0.866   6.617   1.704 -0.0172  0.0109  0.1407
18635THY    HP153177   0.969   6.609   1.667  0.8068  0.5314  5.0034
18635THY    CP253178   0.888   6.712   1.823  0.4306 -0.3176  0.5146
18635THY    HP253179   0.953   6.667   1.899 -0.8710 -0.3697 -1.5880
18635THY    HP353180   0.796   6.715   1.883  0.9221  0.7207 -2.3105
18635THY    HP453181   0.937   6.804   1.790 -3.0678 -1.3842  2.1778
18635THY    CP353182   0.798   6.676   1.580  0.5546 -0.0949 -0.0652
18635THY    HP553183   0.858   6.751   1.527  0.6740 -1.4109 -1.0504
18635THY    HP653184   0.709   6.735   1.606  1.4873 -1.6354  2.1631
18635THY    HP753185   0.763   6.607   1.502 -0.0871  0.0149  0.1351
18635THY    CA353186   0.684   6.454   1.779  0.5122 -0.2481  0.3630
18635THY    HA353187   0.607   6.530   1.780  0.7159  2.7507  0.6644
18635THY    CA453188   0.649   6.326   1.813  0.1093 -0.0453 -0.5043
18635THY    HA453189   0.543   6.306   1.829  0.0932 -0.1132 -0.4753
18635THY    CA553190   0.741   6.221   1.818 -0.0113 -0.2658 -0.0997
18635THY    CM153191   0.690   6.081   1.863 -0.3925 -0.1260 -0.1363
18635THY    HM153192   0.776   6.013   1.872 -0.4763 -0.3444 -0.2724
18635THY    HM253193   0.635   6.039   1.778  0.5526 -2.1871  2.4896
18635THY    HM353194   0.643   6.094   1.961  1.1112  0.3197  2.6285
18635THY    CA653195   0.874   6.240   1.803  0.0676  0.3522  1.0836
18635THY    HA653196   0.941   6.155   1.802 -1.3236 -0.7737 -0.0493
18636THY      O53197   4.620   6.991   7.482 -0.3437 -0.4430  0.0172
18636THY     HO53198   4.705   7.031   7.508 -1.0662 -1.6515  2.5622
18636THY    CA153199   4.613   7.028   7.357  0.4507  0.4378 -0.2453
18636THY    CA253200   4.489   7.084   7.310  0.2461 -0.2558  1.5850
18636THY    CP153201   4.370   7.082   7.399  0.2413  0.7194  0.0541
18636THY    HP153202   4.387   7.037   7.498  2.5540 -1.0546 -3.4038
18636THY    CP253203   4.259   6.997   7.318  0.3191 -0.1585 -0.7833
18636THY    HP253204   4.160   6.986   7.363 -0.7937 -2.1902  0.2516
18636THY    HP353205   4.303   6.897   7.324  0.5579  1.2351 -0.6075
18636THY    HP453206   4.238   7.031   7.216  0.5414  0.7626  2.4911
18636THY    CP353207   4.314   7.229   7.402 -0.2464 -0.2545 -0.2111
18636THY    HP553208   4.234   7.240   7.476  0.7524  0.6126  1.7401
18636THY    HP653209   4.280   7.259   7.302  2.0690 -1.0877 -0.1547
18636THY    HP753210   4.389   7.305   7.428 -0.6557  2.1565 -0.5547
18636THY    CA353211   4.482   7.125   7.180 -0.2834 -0.4005  0.8284
18636THY    HA353212   4.386   7.157   7.139 -1.0085 -0.0178 -0.7639
18636THY    CA453213   4.590   7.104   7.095 -0.4319 -0.4075  0.7506
18636THY    HA453214   4.583   7.125   6.988  1.0587 -1.0338 -1.4986
18636THY    CA553215   4.714   7.070   7.144  0.3673  0.1954  0.1510
18636THY    CM153216   4.825   7.058   7.043 -0.4101  0.9440  0.1073
18636THY    HM153217   4.795   7.018   6.945 -1.9362  1.9264 -1.2719
18636THY    HM253218   4.910   7.001   7.081  0.5477  2.3416  2.3301
18636THY    HM353219   4.865   7.158   7.021 -0.9005  1.7171  0.4789
18636THY    CA653220   4.726   7.031   7.275 -0.1909 -0.2091  0.7242
18636THY    HA653221   4.822   7.003   7.318 -0.7544  0.8613  0.3725
18637THY      O53222   3.519   3.833   6.461  0.3063 -0.5802 -0.4352
18637THY     HO53223   3.423   3.843   6.475  0.7291  1.1018  2.0974
18637THY    CA153224   3.545   3.744   6.355  0.8748 -0.3943 -0.5469
18637THY    CA253225   3.671   3.744   6.288  0.5331 -0.3223 -0.1489
18637THY    CP153226   3.788   3.828   6.339  0.1005 -0.3844  0.6765
18637THY    HP153227   3.798   3.810   6.447  3.1849 -0.6702  0.1922
18637THY    CP253228   3.769   3.972   6.306 -0.3392  0.3276 -0.7703
18637THY    HP253229   3.863   4.028   6.313  0.1338 -0.6347 -1.4181
18637THY    HP353230   3.694   4.017   6.372  0.6651 -0.3373  2.1696
18637THY    HP453231   3.741   3.986   6.201 -1.2851  0.6431 -0.2022
18637THY    CP353232   3.924   3.772   6.289  0.2526 -0.4604  0.4707
18637THY    HP553233   4.009   3.810   6.347 -0.9778  2.8099 -1.3394
18637THY    HP653234   3.943   3.794   6.184 -1.2276 -1.4172 -2.3347
18637THY    HP753235   3.938   3.665   6.306  0.8973 -0.3607  0.5693
18637THY    CA353236   3.679   3.662   6.170 -0.3212 -0.6179  0.8236
18637THY    HA353237   3.770   3.662   6.111 -0.5337 -0.9523  0.4060
18637THY    CA453238   3.576   3.571   6.143 -0.0364 -0.1487  0.3194
18637THY    HA453239   3.589   3.505   6.057 -1.7588  1.3811 -2.1431
18637THY    CA553240   3.451   3.582   6.209 -0.2778  0.4937 -0.3631
18637THY    CM153241   3.338   3.499   6.155  0.0612  0.4996 -0.2454
18637THY    HM153242   3.372   3.440   6.070  2.9279  1.4317 -0.1337
18637THY    HM253243   3.255   3.563   6.123  0.7009 -1.1117 -0.1761
18637THY    HM353244   3.295   3.431   6.230 -2.9486 -1.9308 -1.1955
18637THY    CA653245   3.438   3.666   6.312 -0.1306  0.4022 -0.5930
18637THY    HA653246   3.344   3.659   6.367 -1.0012 -0.8246  0.7244
18638THY      O53247   5.053   5.790   7.724  0.0703 -0.4407  0.7202
18638THY     HO53248   5.104   5.795   7.807 -0.5713 -0.0717  1.5052
18638THY    CA153249   5.125   5.857   7.637 -0.3437  0.3850  0.6047
18638THY    CA253250   5.066   5.907   7.517  0.1344 -0.4147 -0.1399
18638THY    CP153251   4.923   5.865   7.480  0.3298 -0.1789 -0.1155
18638THY    HP153252   4.900   5.779   7.543 -1.1470  1.3222  1.2781
18638THY    CP253253   4.898   5.834   7.332  0.5609  0.0528 -0.0487
18638THY    HP253254   4.804   5.779   7.325  0.6919  0.9488 -0.3939
18638THY    HP353255   4.979   5.766   7.304  0.7031 -0.9613  0.5050
18638THY    HP453256   4.896   5.931   7.280  0.9744  0.2943  0.0932
18638THY    CP353257   4.829   5.973   7.540  0.2400 -0.5910  0.7485
18638THY    HP553258   4.729   5.962   7.497  0.3502 -1.2820  2.2542
18638THY    HP653259   4.860   6.075   7.519  1.5240 -0.0841  0.4854
18638THY    HP753260   4.827   5.967   7.650  0.6343 -0.6002  0.4051
18638THY    CA353261   5.140   5.988   7.429  0.0446  0.3863 -0.3895
18638THY    HA353262   5.101   6.011   7.331  1.8071 -0.1191  0.6220
18638THY    CA453263   5.273   6.019   7.460  0.8114 -0.1741 -0.8305
18638THY    HA453264   5.336   6.078   7.394  0.7618  0.9217  0.4814
18638THY    CA553265   5.336   5.966   7.572 -0.4628  0.2394  0.2848
18638THY    CM153266   5.488   5.984   7.588  0.0407 -0.5385 -0.3225
18638THY    HM153267   5.533   5.923   7.667 -0.0395  0.8661  1.3848
18638THY    HM253268   5.518   6.087   7.608  0.4035  0.4660 -0.6140
18638THY    HM353269   5.529   5.948   7.493  0.8806 -0.5403  0.5937
18638THY    CA653270   5.259   5.892   7.662  0.3052  0.4394 -0.4285
18638THY    HA653271   5.313   5.854   7.749 -0.6514  1.8902  1.3866
18639THY      O53272   4.652   2.614   4.044  0.6702 -0.3750 -0.0808
18639THY     HO53273   4.659   2.666   3.962  0.7055 -1.1791 -1.3170
18639THY    CA153274   4.556   2.673   4.120  0.0468 -0.1056  0.5171
18639THY    CA253275   4.460   2.598   4.188 -1.2152  0.2362 -0.3408
18639THY    CP153276   4.476   2.445   4.207 -0.9027 -0.0605  0.4265
18639THY    HP153277   4.583   2.423   4.216 -0.2610  1.8256  3.5993
18639THY    CP253278   4.426   2.350   4.098  0.4611 -0.5040 -0.5174
18639THY    HP253279   4.317   2.355   4.095  0.3458  2.4648  1.0164
18639THY    HP353280   4.444   2.243   4.116 -1.6724 -0.3382 -0.8884
18639THY    HP453281   4.469   2.370   3.999 -0.8128 -1.0587 -0.4624
18639THY    CP353282   4.422   2.393   4.347  0.7750 -0.4713  0.0435
18639THY    HP553283   4.484   2.440   4.425  0.5736  1.4026 -2.6089
18639THY    HP653284   4.426   2.284   4.354 -2.1954 -2.5180 -0.3118
18639THY    HP753285   4.319   2.422   4.367  0.9925 -1.3242  1.5128
18639THY    CA353286   4.347   2.665   4.244  0.1769  0.4165 -0.1922
18639THY    HA353287   4.278   2.618   4.313 -0.1687  1.3815  1.6227
18639THY    CA453288   4.351   2.805   4.235  0.6899  0.4450 -0.0448
18639THY    HA453289   4.271   2.849   4.294  2.2122  3.6668 -1.2671
18639THY    CA553290   4.452   2.876   4.168 -0.7745 -0.0792  0.1568
18639THY    CM153291   4.457   3.026   4.173  0.5122 -0.3826  0.0565
18639THY    HM153292   4.372   3.072   4.224  1.3612  2.6725 -1.4392
18639THY    HM253293   4.469   3.080   4.079 -1.3020  0.7545  2.6586
18639THY    HM353294   4.538   3.057   4.240 -1.4795  0.6752  3.5143
18639THY    CA653295   4.551   2.804   4.103 -0.6243 -0.1173 -0.7222
18639THY    HA653296   4.622   2.858   4.041 -1.1137 -0.3214 -0.3109
18640THY      O53297   3.637   0.457   5.092 -0.3812 -0.0823 -0.3007
18640THY     HO53298   3.599   0.409   5.167 -0.2659  0.8862  1.0685
18640THY    CA153299   3.716   0.560   5.135  0.6750  0.5592 -0.3420
18640THY    CA253300   3.770   0.649   5.041 -0.1082  0.9879 -0.5875
18640THY    CP153301   3.766   0.606   4.887 -0.1668 -0.2882 -0.2347
18640THY    HP153302   3.718   0.509   4.874  2.2292 -1.1124 -1.3738
18640THY    CP253303   3.900   0.592   4.825 -0.4898 -0.0880  0.6654
18640THY    HP253304   3.970   0.553   4.900 -2.3953  0.3754 -2.1544
18640THY    HP353305   3.926   0.695   4.797 -3.0690  0.7966  1.6638
18640THY    HP453306   3.898   0.529   4.735 -0.8926 -0.2506  0.9046
18640THY    CP353307   3.695   0.711   4.799 -0.2536 -0.2093 -0.3880
18640THY    HP553308   3.721   0.812   4.832 -2.2782 -0.4194  0.2483
18640THY    HP653309   3.586   0.718   4.807 -0.2095 -0.0038  0.1121
18640THY    HP753310   3.720   0.702   4.693  0.8209  0.1160 -1.6395
18640THY    CA353311   3.845   0.757   5.080 -0.4463 -0.4337 -0.0120
18640THY    HA353312   3.888   0.832   5.014 -0.2083  0.8974  1.0580
18640THY    CA453313   3.866   0.769   5.219 -0.0946 -0.4987 -0.4578
18640THY    HA453314   3.920   0.853   5.262 -2.0136  1.3325 -0.1093
18640THY    CA553315   3.814   0.684   5.312  0.4778 -0.3191  0.2785
18640THY    CM153316   3.843   0.711   5.458  0.0800 -0.8160  1.3499
18640THY    HM153317   3.758   0.750   5.513 -0.8648 -0.2366 -1.2991
18640THY    HM253318   3.931   0.777   5.463  1.2396  0.0945 -0.1917
18640THY    HM353319   3.871   0.619   5.511 -1.2580 -2.5221 -0.1342
18640THY    CA653320   3.737   0.577   5.269  0.0112  0.2713 -0.1422
18640THY    HA653321   3.705   0.500   5.338  0.7215 -0.2492 -0.9201
18641THY      O53322   1.087   9.391   1.684  0.0361 -0.7293  0.0524
18641THY     HO53323   1.040   9.475   1.673  1.2654 -1.0314  0.7122
18641THY    CA153324   1.025   9.328   1.786 -0.1422  0.0432  0.3592
18641THY    CA253325   1.040   9.192   1.804  0.0440 -0.2007  0.0278
18641THY    CP153326   1.142   9.111   1.725  0.2587  0.5330  0.2643
18641THY    HP153327   1.194   9.173   1.651 -0.2058  0.3593  0.4535
18641THY    CP253328   1.073   9.000   1.648  0.8350 -0.2407 -0.3096
18641THY    HP253329   0.980   9.039   1.606  0.4653 -2.3982 -3.1849
18641THY    HP353330   1.047   8.924   1.723  1.4810  1.4164  1.0520
18641THY    HP453331   1.133   8.967   1.562  1.3935  0.0591 -0.0950
18641THY    CP353332   1.254   9.052   1.821  0.1556 -0.2703  0.2503
18641THY    HP553333   1.351   9.023   1.779  0.9325  2.1943 -1.0419
18641THY    HP653334   1.225   8.958   1.869  1.4355 -0.7307 -0.4010
18641THY    HP753335   1.269   9.130   1.896  1.1208  0.5309 -0.6745
18641THY    CA353336   0.965   9.135   1.896 -0.1041 -0.3803 -0.2843
18641THY    HA353337   0.975   9.029   1.916 -2.5431  0.3703 -0.4291
18641THY    CA453338   0.879   9.206   1.978  0.0917 -0.3414  0.3170
18641THY    HA453339   0.821   9.154   2.053  2.6280  1.6363  0.1177
18641THY    CA553340   0.857   9.341   1.963  0.4408 -0.3035  0.0152
18641THY    CM153341   0.750   9.417   2.045 -0.3583  0.3850 -0.4564
18641THY    HM153342   0.663   9.434   1.980 -0.2677  0.6163  1.0516
18641THY    HM253343   0.789   9.518   2.060 -1.3217 -2.3158  0.4097
18641THY    HM353344   0.726   9.368   2.139  0.2627 -0.9800 -3.6016
18641THY    CA653345   0.928   9.400   1.858 -0.2575 -0.4416  0.0769
18641THY    HA653346   0.913   9.506   1.842  1.6426 -0.6846  0.3534
18642THY      O53347   7.557   0.891   7.076  0.3070 -0.2845  0.2944
18642THY     HO53348   7.550   0.796   7.099 -0.4738  1.6794  0.7702
18642THY    CA153349   7.439   0.937   7.027  0.2915 -0.0402 -0.5830
18642THY    CA253350   7.436   1.060   6.964 -0.7150 -0.1225 -0.6685
18642THY    CP153351   7.569   1.148   6.963 -0.0201 -0.4418  0.6319
18642THY    HP153352   7.656   1.084   6.983  0.0582 -3.5842 -0.4321
18642THY    CP253353   7.562   1.266   7.058 -0.2221  0.6331  0.2736
18642THY    HP253354   7.638   1.344   7.050 -1.2890 -1.3395  1.1990
18642THY    HP353355   7.563   1.234   7.163  0.0042  1.2650  2.2395
18642THY    HP453356   7.462   1.307   7.041 -1.1045 -0.1081 -2.0052
18642THY    CP353357   7.596   1.190   6.828 -0.0291 -0.4807 -0.3312
18642THY    HP553358   7.700   1.223   6.823 -0.1791  1.5382  0.6580
18642THY    HP653359   7.540   1.283   6.815  0.7855  0.0327  0.2496
18642THY    HP753360   7.575   1.119   6.748 -2.3787 -0.6445  0.4432
18642THY    CA353361   7.317   1.116   6.926 -0.3001  0.4813  0.3960
18642THY    HA353362   7.310   1.215   6.881 -1.2046 -0.9754 -0.3078
18642THY    CA453363   7.202   1.047   6.935 -0.1815  0.2353  1.1008
18642THY    HA453364   7.112   1.106   6.920 -1.4296  0.3529 -0.6613
18642THY    CA553365   7.204   0.916   6.990 -0.5905  0.5654  0.1794
18642THY    CM153366   7.078   0.839   6.989 -0.4758 -0.2661 -0.8064
18642THY    HM153367   7.042   0.817   6.888 -2.4668  0.4391 -1.0033
18642THY    HM253368   7.002   0.900   7.040  0.3452 -0.2479  0.2464
18642THY    HM353369   7.070   0.758   7.061  0.4204 -0.1450 -0.7977
18642THY    CA653370   7.321   0.864   7.036 -0.3254 -1.0388  0.3339
18642THY    HA653371   7.317   0.769   7.088  0.3634 -0.1212  0.7957
18643THY      O53372   5.609   3.054   4.099 -0.4584 -0.2148 -0.1479
18643THY     HO53373   5.575   3.092   4.016 -2.0546 -0.2215 -1.4774
18643THY    CA153374   5.654   2.929   4.067  0.3373  0.3772  0.3163
18643THY    CA253375   5.644   2.825   4.152 -0.5762 -1.2429  0.0103
18643THY    CP153376   5.604   2.842   4.298  0.6275 -0.2164  0.6822
18643THY    HP153377   5.562   2.941   4.319 -1.9370 -1.3261 -0.0942
18643THY    CP253378   5.725   2.810   4.391 -0.7330  0.9553  0.5040
18643THY    HP253379   5.708   2.840   4.495 -0.8290  0.9036  0.6341
18643THY    HP353380   5.807   2.876   4.359  1.5764  2.3087 -1.5597
18643THY    HP453381   5.748   2.704   4.379 -1.6456 -0.3216  0.4261
18643THY    CP353382   5.483   2.749   4.332  0.4842  0.4273 -0.3552
18643THY    HP553383   5.468   2.748   4.441 -1.9528  0.1592  0.9814
18643THY    HP653384   5.489   2.651   4.284 -3.0230 -0.9114 -0.0416
18643THY    HP753385   5.400   2.806   4.290  1.0053 -1.5660 -0.9947
18643THY    CA353386   5.681   2.697   4.114 -0.3341  0.5310  0.2310
18643THY    HA353387   5.680   2.612   4.182 -0.4464 -0.0539 -0.2437
18643THY    CA453388   5.698   2.669   3.980 -0.2890 -0.3365  0.2155
18643THY    HA453389   5.697   2.564   3.949 -2.3797 -3.1819  0.9502
18643THY    CA553390   5.712   2.776   3.887  0.3996 -0.0508  0.0392
18643THY    CM153391   5.744   2.761   3.743  0.2901 -0.5655  0.5303
18643THY    HM153392   5.661   2.782   3.675  0.4678 -1.1444 -0.5707
18643THY    HM253393   5.785   2.660   3.730 -0.7472  2.3517 -0.3797
18643THY    HM353394   5.822   2.835   3.720  1.3124  0.4520 -0.1949
18643THY    CA653395   5.682   2.907   3.931 -0.5371  0.7521  0.1015
18643THY    HA653396   5.692   2.989   3.861 -2.7851  1.4425  1.0302
18644THY      O53397   4.876   6.946   4.798  0.0288  0.2290 -0.7766
18644THY     HO53398   4.897   7.038   4.774 -0.5307  0.2289 -0.6487
18644THY    CA153399   4.977   6.918   4.879 -0.0558  0.3645 -0.2316
18644THY    CA253400   4.978   6.798   4.947  0.0209 -1.0591 -0.3276
18644THY    CP153401   4.850   6.705   4.946 -0.6562  0.0676 -0.6981
18644THY    HP153402   4.797   6.733   4.854  1.0518 -0.7431  0.0100
18644THY    CP253403   4.771   6.732   5.075  0.5009  0.6104 -0.1042
18644THY    HP253404   4.724   6.830   5.090  1.7497  1.5536  0.3704
18644THY    HP353405   4.842   6.724   5.158  1.2778  0.2892  2.4956
18644THY    HP453406   4.699   6.650   5.089 -0.7295 -0.3205  0.7865
18644THY    CP353407   4.886   6.558   4.931  0.0866  0.1817 -0.4040
18644THY    HP553408   4.798   6.496   4.914 -0.5524  2.0718 -0.0880
18644THY    HP653409   4.944   6.530   5.020  0.9660 -0.5642 -1.0260
18644THY    HP753410   4.955   6.552   4.846 -1.2148 -0.9050 -0.2496
18644THY    CA353411   5.086   6.765   5.033 -0.1633 -0.5777  0.5406
18644THY    HA353412   5.078   6.677   5.096  2.3421 -0.1910  0.5330
18644THY    CA453413   5.193   6.865   5.058 -0.1051  0.2937 -0.4766
18644THY    HA453414   5.270   6.844   5.131  0.1379 -0.6033 -3.0923
18644THY    CA553415   5.194   6.981   4.980  0.0230  0.0737  0.2114
18644THY    CM153416   5.313   7.070   4.987  0.6155 -0.6427 -0.0747
18644THY    HM153417   5.329   7.138   4.903  0.7454 -1.1619 -0.7276
18644THY    HM253418   5.406   7.016   5.008 -0.9846  2.1272 -2.0938
18644THY    HM353419   5.308   7.129   5.079 -1.0853 -1.1328  0.6087
18644THY    CA653420   5.085   7.009   4.895  0.0010 -0.7633 -0.4308
18644THY    HA653421   5.081   7.103   4.841  1.7259 -0.5736 -0.2145
18645THY      O53422   5.526   1.649   6.564  0.4956  0.4081 -0.0822
18645THY     HO53423   5.591   1.712   6.599  1.8748  0.7212 -1.6187
18645THY    CA153424   5.605   1.579   6.477 -0.3643  0.0263 -0.9844
18645THY    CA253425   5.568   1.563   6.337  0.1921  0.0065  0.1723
18645THY    CP153426   5.443   1.632   6.289 -0.2372 -0.3444 -0.2090
18645THY    HP153427   5.364   1.606   6.360  1.3342  0.4284 -3.2543
18645THY    CP253428   5.383   1.580   6.157 -0.4091  0.3233 -1.2234
18645THY    HP253429   5.303   1.647   6.123  2.2708 -0.9914  1.5688
18645THY    HP353430   5.338   1.482   6.176  1.5642  1.5961 -1.9449
18645THY    HP453431   5.461   1.581   6.079  0.1087  0.7179  2.4030
18645THY    CP353432   5.452   1.781   6.283  0.1593 -0.0785  0.4619
18645THY    HP553433   5.508   1.823   6.368  0.1599  0.8868 -1.3644
18645THY    HP653434   5.349   1.818   6.286  0.1128  0.2123  0.3091
18645THY    HP753435   5.502   1.813   6.191  0.5244 -0.0674 -0.0557
18645THY    CA353436   5.661   1.500   6.256 -0.4493 -0.0552 -0.1550
18645THY    HA353437   5.648   1.491   6.148  1.1896 -0.1971 -1.1327
18645THY    CA453438   5.782   1.446   6.312  0.5936  0.1291  0.2047
18645THY    HA453439   5.848   1.387   6.249 -0.5573 -0.7327 -0.2161
18645THY    CA553440   5.815   1.452   6.444  0.0684 -0.5208 -0.8762
18645THY    CM153441   5.930   1.386   6.513 -0.0885  0.2398 -0.5912
18645THY    HM153442   6.025   1.419   6.471  0.5159  0.2759 -2.1713
18645THY    HM253443   5.934   1.276   6.503  0.4573  2.3432 -0.7995
18645THY    HM353444   5.937   1.409   6.620  0.5103  0.1892 -0.5150
18645THY    CA653445   5.720   1.523   6.529  0.0520  0.4743  0.5492
18645THY    HA653446   5.739   1.525   6.636 -1.2236  0.7138  0.6527
18646THY      O53447   6.417   8.645   3.376  0.2643  0.3119 -0.2947
18646THY     HO53448   6.503   8.690   3.371 -0.1628 -0.0780  0.4878
18646THY    CA153449   6.335   8.702   3.284 -0.0245  1.0646 -1.3514
18646THY    CA253450   6.221   8.645   3.226  0.1449  0.1150 -0.2375
18646THY    CP153451   6.203   8.497   3.249 -0.0383  0.9673  0.3433
18646THY    HP153452   6.261   8.458   3.334  0.6425 -0.2365 -1.3637
18646THY    CP253453   6.244   8.410   3.125  0.1143  0.1503 -0.7354
18646THY    HP253454   6.188   8.425   3.031  1.8445 -0.9640 -1.0181
18646THY    HP353455   6.231   8.304   3.148 -0.5893 -0.4314 -0.7828
18646THY    HP453456   6.348   8.437   3.104 -0.2669  0.5828  1.2527
18646THY    CP353457   6.054   8.456   3.291 -0.4686  0.2735  0.4756
18646THY    HP553458   6.044   8.348   3.306 -1.6920 -1.9178  0.2503
18646THY    HP653459   5.984   8.471   3.209 -2.3717  1.8322  0.5105
18646THY    HP753460   6.015   8.505   3.381 -2.3585  0.1941 -0.7849
18646THY    CA353461   6.128   8.720   3.150 -0.3434  1.3065  0.2641
18646THY    HA353462   6.047   8.679   3.090  1.4231 -1.4814  0.5525
18646THY    CA453463   6.165   8.851   3.129  0.1266  0.4029 -0.0367
18646THY    HA453464   6.103   8.911   3.062 -0.3262 -1.3057 -2.2700
18646THY    CA553465   6.272   8.908   3.192 -0.3544  0.3586 -1.3768
18646THY    CM153466   6.298   9.053   3.171 -0.2944  0.2161  0.3011
18646THY    HM153467   6.202   9.099   3.147 -0.8191 -1.9404 -1.7218
18646THY    HM253468   6.378   9.072   3.098  0.1761  1.1111  1.9395
18646THY    HM353469   6.335   9.093   3.266 -0.1367  0.2172  0.1543
18646THY    CA653470   6.364   8.836   3.262  0.0193 -0.1906  0.0015
18646THY    HA653471   6.450   8.884   3.308  1.0557 -2.1180  0.1112
18647THY      O53472   1.707   0.778   3.773  0.1593 -0.2751 -0.3523
18647THY     HO53473   1.644   0.851   3.758 -0.6114 -0.5297 -1.0617
18647THY    CA153474   1.723   0.713   3.661 -0.5291 -0.3347 -0.5072
18647THY    CA253475   1.749   0.574   3.661  0.2577  0.1911  0.7176
18647THY    CP153476   1.770   0.495   3.792  0.3444  0.3027  0.7212
18647THY    HP153477   1.786   0.571   3.869 -0.6009 -0.2170  1.4723
18647THY    CP253478   1.888   0.399   3.788  0.7352 -0.4117  0.2869
18647THY    HP253479   1.974   0.455   3.749 -0.0594 -0.7005  1.3282
18647THY    HP353480   1.873   0.315   3.719 -0.7036 -0.4590  0.5551
18647THY    HP453481   1.904   0.337   3.877  1.2379 -0.2496  0.6449
18647THY    CP353482   1.646   0.418   3.824 -0.0437 -0.3186  0.4543
18647THY    HP553483   1.621   0.340   3.751 -0.5894  0.2705  0.0616
18647THY    HP653484   1.559   0.485   3.824  1.0892  2.5398  2.0765
18647THY    HP753485   1.652   0.370   3.922 -0.0079 -0.8206 -0.6077
18647THY    CA353486   1.779   0.511   3.540 -0.6264 -0.0603  0.3266
18647THY    HA353487   1.794   0.404   3.530 -1.2546  2.0748  0.0005
18647THY    CA453488   1.765   0.581   3.420  0.0459 -0.3945 -0.5410
18647THY    HA453489   1.790   0.536   3.324  0.3936 -1.3636  1.5903
18647THY    CA553490   1.724   0.711   3.421  0.1631  0.0821 -0.3351
18647THY    CM153491   1.709   0.786   3.294 -0.0241  0.1027 -0.2974
18647THY    HM153492   1.618   0.847   3.302  0.2192 -1.2220  0.2737
18647THY    HM253493   1.700   0.715   3.210 -0.9385  0.8465 -1.0929
18647THY    HM353494   1.795   0.853   3.286  0.4650  1.1824 -0.7734
18647THY    CA653495   1.701   0.780   3.542  0.5256 -0.0608  0.2416
18647THY    HA653496   1.678   0.886   3.540 -0.1855  0.9905  0.1228
18648THY      O53497   6.175   1.178   1.982  0.2913  0.4544  0.2693
18648THY     HO53498   6.085   1.143   1.987  1.4596  1.5242 -3.0028
18648THY    CA153499   6.169   1.294   2.049  0.0780 -0.2585  0.2474
18648THY    CA253500   6.275   1.374   2.089 -0.3750 -0.3623  0.5351
18648THY    CP153501   6.418   1.326   2.067 -1.1220  0.8397  0.1575
18648THY    HP153502   6.418   1.282   1.966  0.8675  1.7417 -2.1230
18648THY    CP253503   6.484   1.225   2.156 -0.2146 -0.1130  0.5921
18648THY    HP253504   6.428   1.131   2.152 -0.2097  1.8145  0.4845
18648THY    HP353505   6.486   1.261   2.259 -0.7358  0.1161 -0.0195
18648THY    HP453506   6.589   1.207   2.130  0.5626  1.4897  2.4905
18648THY    CP353507   6.528   1.442   2.055  0.6266 -0.7214 -0.2525
18648THY    HP553508   6.485   1.528   2.001 -2.9040  0.3303 -1.1684
18648THY    HP653509   6.615   1.407   1.999  1.9767  0.6104  0.8438
18648THY    HP753510   6.555   1.485   2.152  0.0087 -0.9622  0.7116
18648THY    CA353511   6.256   1.496   2.153 -0.2448 -0.4833 -0.3237
18648THY    HA353512   6.333   1.572   2.153  1.0118 -0.3400 -1.5727
18648THY    CA453513   6.122   1.534   2.178  0.0789 -0.3142 -0.4252
18648THY    HA453514   6.108   1.634   2.218  1.3477 -0.2452 -0.2498
18648THY    CA553515   6.012   1.457   2.136 -0.1575 -0.0948 -0.3388
18648THY    CM153516   5.870   1.510   2.148 -0.6845 -0.0594 -0.0108
18648THY    HM153517   5.854   1.577   2.234 -1.0333  1.4472 -1.9618
18648THY    HM253518   5.797   1.428   2.147 -1.5899 -0.4617  0.7700
18648THY    HM353519   5.839   1.561   2.055  2.0039 -2.2083 -1.9630
18648THY    CA653520   6.037   1.333   2.074 -0.1956  0.0101 -0.6813
18648THY    HA653521   5.951   1.268   2.063  1.0702 -1.3858 -2.2071
18649THY      O53522   4.205   5.631   5.863 -0.3927  0.0770 -0.0750
18649THY     HO53523   4.127   5.627   5.805 -1.2913  0.9810  2.6239
18649THY    CA153524   4.260   5.750   5.826 -0.0728 -0.3250  0.1865
18649THY    CA253525   4.372   5.802   5.893 -0.1568  0.3070  0.4349
18649THY    CP153526   4.451   5.713   5.991  0.5886 -0.1478  0.3408
18649THY    HP153527   4.400   5.624   6.027  1.9071  0.5402 -0.1613
18649THY    CP253528   4.456   5.788   6.119 -0.1345 -0.8780  0.4144
18649THY    HP253529   4.354   5.819   6.144  0.4551  2.0632  0.2764
18649THY    HP353530   4.517   5.877   6.102  1.0212 -1.3703 -0.4565
18649THY    HP453531   4.491   5.718   6.197 -2.6073 -0.0064  0.0343
18649THY    CP353532   4.579   5.658   5.929  0.4574 -0.7808  0.1360
18649THY    HP553533   4.632   5.594   6.000  0.5703 -1.8706 -1.0252
18649THY    HP653534   4.647   5.740   5.904 -1.2651 -2.6117  1.0986
18649THY    HP753535   4.563   5.596   5.840 -1.3834 -1.9533  2.1356
18649THY    CA353536   4.422   5.931   5.850  0.2479  0.1944 -0.0508
18649THY    HA353537   4.517   5.974   5.880  0.8754  0.2852 -1.4460
18649THY    CA453538   4.371   5.986   5.731  0.1459  1.0441 -0.7019
18649THY    HA453539   4.415   6.073   5.684  1.1797 -1.5092 -2.4874
18649THY    CA553540   4.260   5.928   5.664  0.2829  0.1631  0.1526
18649THY    CM153541   4.200   5.995   5.546 -0.5897  0.4378  0.1137
18649THY    HM153542   4.148   5.927   5.477 -0.9956  1.7546 -0.9644
18649THY    HM253543   4.279   6.035   5.482 -1.5463 -0.8087  0.0815
18649THY    HM353544   4.138   6.077   5.585  3.7298  3.0489  2.5027
18649THY    CA653545   4.202   5.811   5.720  0.3754 -0.5634  0.5060
18649THY    HA653546   4.117   5.766   5.671  0.2522  1.5663 -1.7596
18650THY      O53547   5.280   8.537   5.390  0.2287 -0.0454 -0.0273
18650THY     HO53548   5.373   8.557   5.410  0.3348 -1.4133  1.0268
18650THY    CA153549   5.262   8.579   5.259  0.3017 -0.6443 -0.3116
18650THY    CA253550   5.144   8.549   5.184 -0.9086  0.1138  0.3271
18650THY    CP153551   5.041   8.457   5.251  0.4648  0.7170  0.0970
18650THY    HP153552   5.035   8.482   5.358  0.2037  0.4326  1.3046
18650THY    CP253553   5.073   8.310   5.218  0.2601 -0.5456 -0.5809
18650THY    HP253554   5.171   8.271   5.250 -0.3552 -0.7995 -2.4217
18650THY    HP353555   5.059   8.301   5.109  3.5530 -1.2119  0.8207
18650THY    HP453556   4.999   8.248   5.269  0.8267 -0.6527 -1.3610
18650THY    CP353557   4.891   8.482   5.214  0.6371 -0.0976 -0.2897
18650THY    HP553558   4.851   8.583   5.230  1.5188  0.4744 -0.0232
18650THY    HP653559   4.825   8.416   5.271 -0.5184  0.4313  1.2466
18650THY    HP753560   4.887   8.452   5.109  1.6303 -0.0699 -0.5405
18650THY    CA353561   5.136   8.614   5.054 -0.1243 -0.2020  0.3545
18650THY    HA353562   5.048   8.595   4.992  1.1275 -2.2017  0.8150
18650THY    CA453563   5.233   8.709   5.014  0.0175 -0.1909 -0.0096
18650THY    HA453564   5.208   8.759   4.921 -0.0620 -0.3841 -0.4046
18650THY    CA553565   5.340   8.744   5.093 -0.2815  0.0413 -0.0049
18650THY    CM153566   5.439   8.860   5.068 -0.0656  0.4297 -0.0109
18650THY    HM153567   5.526   8.827   5.010  0.2278  1.6589 -1.5489
18650THY    HM253568   5.466   8.916   5.159  1.5676  0.0101 -0.0811
18650THY    HM353569   5.380   8.926   5.004 -0.2340 -2.9419 -3.1380
18650THY    CA653570   5.354   8.672   5.213  0.1027  0.2441 -0.6372
18650THY    HA653571   5.433   8.707   5.279  1.2244 -1.7853  0.8070
18651THY      O53572   7.812   2.091   4.773  0.2195 -0.0788  0.4914
18651THY     HO53573   7.817   2.000   4.739 -0.3028 -0.0507  0.4501
18651THY    CA153574   7.870   2.075   4.899  0.3413  0.0730 -0.3932
18651THY    CA253575   7.894   2.182   4.987  0.5675  0.4260 -0.1125
18651THY    CP153576   7.836   2.325   4.960 -0.1222 -0.5086 -0.5429
18651THY    HP153577   7.842   2.352   4.854  3.0844 -0.2029  0.4764
18651THY    CP253578   7.924   2.445   4.994  0.4257  0.7124  0.3093
18651THY    HP253579   8.015   2.446   4.931 -0.7083 -0.9927  0.6367
18651THY    HP353580   7.950   2.458   5.100  0.8399  0.8209 -1.2554
18651THY    HP453581   7.870   2.539   4.977  0.3497 -0.8552  0.0146
18651THY    CP353582   7.704   2.354   5.024 -0.0613  0.7283 -0.0094
18651THY    HP553583   7.657   2.430   4.961  2.9166  0.5813  1.8535
18651THY    HP653584   7.725   2.404   5.119 -0.9935  1.2618 -0.6162
18651THY    HP753585   7.645   2.262   5.033 -1.4210  0.4369  0.8090
18651THY    CA353586   7.966   2.158   5.107  1.1343 -0.6982  0.0340
18651THY    HA353587   7.984   2.237   5.179  1.0488 -0.2102 -0.3818
18651THY    CA453588   8.002   2.023   5.142 -0.2162 -0.0652 -0.3695
18651THY    HA453589   8.064   2.005   5.229 -1.2190  0.6370 -0.4596
18651THY    CA553590   7.979   1.921   5.044 -0.0658 -0.3333 -0.0999
18651THY    CM153591   8.009   1.773   5.073  0.0737  0.1074 -0.6256
18651THY    HM153592   8.085   1.729   5.006 -1.5827 -0.3756 -2.9354
18651THY    HM253593   7.920   1.711   5.057 -1.5421  0.3297  1.5558
18651THY    HM353594   8.037   1.755   5.178 -0.0430  0.2651  0.1073
18651THY    CA653595   7.912   1.945   4.929  0.5154 -0.1938 -0.7164
18651THY    HA653596   7.892   1.868   4.855 -1.8507 -2.6024  1.9851
18652THY      O53597   1.712   8.965   6.578 -0.4051 -0.3911  0.4653
18652THY     HO53598   1.679   9.010   6.658 -1.5712 -0.5130 -0.1311
18652THY    CA153599   1.816   8.880   6.611  0.3138  0.9071  0.1490
18652THY    CA253600   1.857   8.790   6.512 -0.3518  0.0890 -0.4558
18652THY    CP153601   1.789   8.770   6.372 -0.8204 -0.1008  0.6853
18652THY    HP153602   1.712   8.846   6.355  0.6733 -2.0073  1.8766
18652THY    CP253603   1.723   8.639   6.354  0.2104 -0.4846 -0.5130
18652THY    HP253604   1.634   8.636   6.417  0.7433  0.2395 -1.4693
18652THY    HP353605   1.785   8.552   6.378 -0.9999 -2.4474 -2.0041
18652THY    HP453606   1.676   8.640   6.255  2.6810 -1.7444 -0.3278
18652THY    CP353607   1.896   8.784   6.260  0.5069 -0.7649  0.0513
18652THY    HP553608   1.964   8.698   6.253 -0.0662  1.7845 -0.7043
18652THY    HP653609   1.955   8.871   6.288 -2.1484 -0.2474  1.8044
18652THY    HP753610   1.850   8.804   6.163 -1.3242 -0.0927 -0.5768
18652THY    CA353611   1.967   8.713   6.552  0.6389  0.2191 -0.4182
18652THY    HA353612   2.004   8.645   6.477 -0.9047 -1.6959  0.7499
18652THY    CA453613   2.032   8.727   6.671  0.2197  0.2175  0.2593
18652THY    HA453614   2.123   8.672   6.693  0.9200  1.4492  1.8342
18652THY    CA553615   1.984   8.811   6.765 -0.0964  0.0880  0.6388
18652THY    CM153616   2.047   8.823   6.904 -0.5116  0.3653  0.7151
18652THY    HM153617   1.987   8.760   6.970 -0.1531  0.3472  0.3542
18652THY    HM253618   2.057   8.928   6.934  2.3090  0.9204  0.3497
18652THY    HM353619   2.142   8.769   6.905 -1.6601 -0.4207 -1.4062
18652THY    CA653620   1.871   8.887   6.735 -0.2928  0.5167 -0.4038
18652THY    HA653621   1.825   8.957   6.805  0.7780 -2.1844  3.3412
18653THY      O53622   3.380   4.880   2.922  0.9725  0.1585  0.7202
18653THY     HO53623   3.413   4.950   2.863  0.7389 -2.3566 -1.1461
18653THY    CA153624   3.448   4.875   3.037 -0.1354 -0.0570  0.5819
18653THY    CA253625   3.384   4.839   3.151  0.6678  1.1063  0.2518
18653THY    CP153626   3.232   4.797   3.149  1.0995 -0.2118 -0.1458
18653THY    HP153627   3.184   4.805   3.051  1.2701 -0.2449  0.5257
18653THY    CP253628   3.153   4.881   3.253  0.5565  1.1579  0.3171
18653THY    HP253629   3.180   4.868   3.359  1.5926  0.7955 -0.5941
18653THY    HP353630   3.047   4.864   3.235  0.8753 -0.2504 -0.2977
18653THY    HP453631   3.174   4.989   3.246  0.1527  0.7155  0.3658
18653THY    CP353632   3.216   4.650   3.184 -0.0980  0.4725  0.1659
18653THY    HP553633   3.244   4.624   3.286 -3.0526  0.9754 -1.5666
18653THY    HP653634   3.269   4.592   3.108  0.6602  2.0765 -1.2944
18653THY    HP753635   3.112   4.616   3.172  0.0118  1.4108 -0.5394
18653THY    CA353636   3.459   4.831   3.272 -0.2332  0.5020 -0.8324
18653THY    HA353637   3.407   4.791   3.358  0.3288  2.4336  2.2541
18653THY    CA453638   3.594   4.870   3.269  0.2557  0.2739 -0.0378
18653THY    HA453639   3.648   4.870   3.362 -0.3251  0.6296 -0.8353
18653THY    CA553640   3.657   4.907   3.153  0.6787  0.0763  0.5732
18653THY    CM153641   3.800   4.950   3.150 -0.1211 -0.2375  0.5150
18653THY    HM153642   3.811   5.053   3.115  0.3163 -1.4381  0.0863
18653THY    HM253643   3.855   4.875   3.091  0.7223  0.5705  0.4907
18653THY    HM353644   3.830   4.944   3.255  0.1217 -0.3073  0.4832
18653THY    CA653645   3.588   4.908   3.034 -0.2371  0.0556 -0.0739
18653THY    HA653646   3.641   4.928   2.941  1.0059  1.1669  2.1285
18654THY      O53647   5.115   0.685   4.269  0.1004 -0.3056  0.3280
18654THY     HO53648   5.107   0.593   4.236  1.5072  0.8064 -0.2279
18654THY    CA153649   5.254   0.694   4.279  0.7652  0.3471 -1.2822
18654THY    CA253650   5.309   0.773   4.385  0.5647 -0.0753  0.0788
18654THY    CP153651   5.213   0.853   4.482 -0.9032  0.0956 -0.1024
18654THY    HP153652   5.150   0.907   4.410  0.1214 -1.3352 -0.7543
18654THY    CP253653   5.278   0.967   4.558 -0.4341  0.7793 -0.3065
18654THY    HP253654   5.342   0.936   4.641  0.0324  0.5793  0.1164
18654THY    HP353655   5.209   1.049   4.582  0.7617 -2.2566  1.7545
18654THY    HP453656   5.343   1.018   4.487 -0.3671  1.6278  0.8334
18654THY    CP353657   5.145   0.759   4.579 -0.6421  0.4832  0.1815
18654THY    HP553658   5.082   0.686   4.527 -0.3566 -0.6959  0.7496
18654THY    HP653659   5.077   0.821   4.640 -1.2686 -1.5961  1.6542
18654THY    HP753660   5.219   0.709   4.641 -0.1435 -0.6124 -0.4708
18654THY    CA353661   5.448   0.775   4.389 -0.4781 -0.1142 -0.8050
18654THY    HA353662   5.499   0.837   4.463  0.7968 -2.7881  1.5515
18654THY    CA453663   5.521   0.698   4.304 -0.9763  0.5086 -0.1030
18654THY    HA453664   5.629   0.694   4.310 -0.8635 -0.7940  0.4742
18654THY    CA553665   5.466   0.620   4.212 -0.0406  0.5978  0.2741
18654THY    CM153666   5.560   0.526   4.131  0.1640 -0.1286  0.6600
18654THY    HM153667   5.521   0.517   4.029 -0.8150  0.2089  0.9559
18654THY    HM253668   5.558   0.421   4.163 -0.5386  0.0101  0.7058
18654THY    HM353669   5.664   0.559   4.129 -0.5267 -2.8806  3.0926
18654THY    CA653670   5.327   0.621   4.192 -0.5409  0.2902 -0.4099
18654THY    HA653671   5.281   0.573   4.107 -1.6464  0.2367  0.6836
18655THY      O53672   5.886   4.857   4.737 -0.2152 -0.4214 -0.2209
18655THY     HO53673   5.913   4.792   4.803 -0.4302 -1.8139 -1.7842
18655THY    CA153674   6.009   4.894   4.690  0.0373  0.8461  0.1770
18655THY    CA253675   6.034   5.023   4.644 -0.1610 -0.1409 -0.2079
18655THY    CP153676   5.929   5.136   4.658 -0.4193 -0.8535  0.6740
18655THY    HP153677   5.839   5.095   4.707 -0.1280  1.1114  2.2374
18655THY    CP253678   5.875   5.169   4.524  0.5718  0.6149 -0.1059
18655THY    HP253679   5.874   5.083   4.456 -2.4669 -0.9313  0.9985
18655THY    HP353680   5.939   5.237   4.466 -0.4442 -0.0396  0.3131
18655THY    HP453681   5.777   5.218   4.529  0.7653 -2.3580  0.7830
18655THY    CP353682   5.979   5.261   4.721  0.3462 -0.0084 -0.3082
18655THY    HP553683   6.081   5.290   4.696  0.4741 -0.5420 -1.1872
18655THY    HP653684   5.971   5.240   4.829 -0.5949 -0.3442 -1.8638
18655THY    HP753685   5.906   5.342   4.717 -1.4158 -0.5290 -1.8473
18655THY    CA353686   6.158   5.051   4.579  0.3116  0.0313  0.2390
18655THY    HA353687   6.176   5.150   4.539 -1.2957 -0.8639  0.2033
18655THY    CA453688   6.259   4.960   4.591 -0.1934 -0.7131 -0.0236
18655THY    HA453689   6.360   4.982   4.556  0.5520 -0.3309 -2.5397
18655THY    CA553690   6.240   4.835   4.636  0.0761 -0.0720 -0.2925
18655THY    CM153691   6.352   4.735   4.637  0.1458 -0.4655  0.4984
18655THY    HM153692   6.404   4.727   4.541  1.6565  0.2712  0.9718
18655THY    HM253693   6.321   4.636   4.673 -0.5650 -1.1449  0.4729
18655THY    HM353694   6.424   4.769   4.712  2.0805 -2.3014  0.6562
18655THY    CA653695   6.110   4.802   4.684  0.2369 -0.8487  0.0629
18655THY    HA653696   6.085   4.703   4.721 -1.2995 -0.3658  0.5987
18656THY      O53697   9.269   4.096   5.293 -0.2392 -0.0110  0.2846
18656THY     HO53698   9.272   4.004   5.324  0.1556 -1.3507 -0.1795
18656THY    CA153699   9.141   4.133   5.285 -0.0834 -0.7109  0.0748
18656THY    CA253700   9.095   4.255   5.229  0.0293  0.5140  0.0322
18656THY    CP153701   9.203   4.349   5.181  0.7500  0.3184  0.1073
18656THY    HP153702   9.298   4.299   5.157  1.2484 -1.3956  1.7634
18656THY    CP253703   9.237   4.452   5.288  0.1720  0.0422  0.9264
18656THY    HP253704   9.143   4.484   5.335 -0.0976  1.2027 -1.3863
18656THY    HP353705   9.292   4.535   5.243 -0.5275  2.0000  2.5542
18656THY    HP453706   9.299   4.404   5.365  2.3615 -1.9596  0.4009
18656THY    CP353707   9.162   4.425   5.057 -0.1333  0.3019  0.3588
18656THY    HP553708   9.087   4.504   5.071 -0.2583  0.3410  0.2347
18656THY    HP653709   9.103   4.357   4.995 -0.9107  1.5618 -0.1615
18656THY    HP753710   9.245   4.456   4.993 -0.4640  1.1133  3.2173
18656THY    CA353711   8.956   4.271   5.200  0.1674 -0.3838 -0.1048
18656THY    HA353712   8.923   4.367   5.162 -0.5099 -0.7827 -0.4819
18656THY    CA453713   8.870   4.165   5.229  0.4274 -0.0177 -0.2973
18656THY    HA453714   8.763   4.183   5.217  0.1041  2.3412 -0.1964
18656THY    CA553715   8.917   4.054   5.301 -0.3233 -0.4795 -0.2806
18656THY    CM153716   8.813   3.945   5.342  0.3239 -0.4015 -0.2369
18656THY    HM153717   8.870   3.880   5.409 -1.5167  0.6062 -0.8818
18656THY    HM253718   8.774   3.896   5.252 -0.6597 -0.7807  1.1925
18656THY    HM353719   8.731   3.981   5.404 -1.1997 -2.0825 -0.6775
18656THY    CA653720   9.051   4.033   5.315  0.6614 -0.5035 -0.4907
18656THY    HA653721   9.082   3.937   5.354  0.5962 -2.5492 -1.3985
18657THY      O53722   3.959   7.886   2.592  0.0145 -0.5058 -0.3738
18657THY     HO53723   3.915   7.905   2.676 -0.5701 -0.5096 -1.6376
18657THY    CA153724   4.004   7.757   2.583  0.0918  0.0559  0.0134
18657THY    CA253725   4.037   7.711   2.453 -0.8978  0.0796 -0.4872
18657THY    CP153726   4.021   7.802   2.327  0.1385 -1.2809  0.4402
18657THY    HP153727   3.954   7.887   2.344  0.8138  0.6197  0.6206
18657THY    CP253728   3.964   7.728   2.202 -0.3689  0.7142  0.0353
18657THY    HP253729   3.869   7.675   2.216 -0.8018  1.4396  0.9926
18657THY    HP353730   4.034   7.654   2.160 -0.8104 -0.1509  0.0967
18657THY    HP453731   3.946   7.802   2.123 -1.0595  0.9950  0.1741
18657THY    CP353732   4.159   7.857   2.294  0.0199  0.5196  0.7109
18657THY    HP553733   4.224   7.770   2.273 -0.8658 -2.0823  0.5642
18657THY    HP653734   4.211   7.917   2.369 -0.2180  0.0422  1.5265
18657THY    HP753735   4.159   7.915   2.201 -1.1101  0.0338 -0.0246
18657THY    CA353736   4.116   7.585   2.447 -0.1520  0.6984 -0.5859
18657THY    HA353737   4.143   7.545   2.349  1.3697 -0.7390  3.4681
18657THY    CA453738   4.154   7.521   2.568 -0.2595  0.6152 -0.2551
18657THY    HA453739   4.208   7.427   2.561  0.4235 -1.4441  0.2284
18657THY    CA553740   4.117   7.574   2.694  0.4915  0.6846  0.1988
18657THY    CM153741   4.165   7.498   2.805 -1.4458  0.2131  0.0905
18657THY    HM153742   4.223   7.411   2.772 -0.0525  0.2996  0.9637
18657THY    HM253743   4.082   7.448   2.857 -0.7791  0.7958 -0.4270
18657THY    HM353744   4.223   7.565   2.869  0.7192 -1.1782 -0.3367
18657THY    CA653745   4.035   7.686   2.699  0.1480  0.1826  0.2229
18657THY    HA653746   4.005   7.729   2.794  1.1166 -0.1343  1.6932
18658THY      O53747   5.085   2.179   5.837  0.2014 -0.0525  0.3249
18658THY     HO53748   5.115   2.167   5.929  0.8026 -0.3264 -0.2850
18658THY    CA153749   5.045   2.307   5.820 -0.0513 -0.7142 -0.2231
18658THY    CA253750   4.999   2.351   5.696  1.1591 -0.6006 -0.9471
18658THY    CP153751   4.987   2.256   5.575 -0.6851 -0.1462  0.1493
18658THY    HP153752   5.083   2.204   5.586  0.2542  1.1897  2.0286
18658THY    CP253753   4.975   2.325   5.437 -0.3772  0.2282 -0.4784
18658THY    HP253754   4.881   2.381   5.434  1.2518  1.3235  2.5353
18658THY    HP353755   4.971   2.241   5.366  0.6131 -1.4743  0.8585
18658THY    HP453756   5.066   2.383   5.417 -0.0086 -0.7449 -1.3642
18658THY    CP353757   4.858   2.156   5.582 -0.4201  0.3669  0.1161
18658THY    HP553758   4.765   2.215   5.576  0.4075 -0.5631  1.3644
18658THY    HP653759   4.864   2.090   5.670 -4.4734  1.0200  0.3371
18658THY    HP753760   4.865   2.085   5.499 -1.2198  0.2445  0.1634
18658THY    CA353761   4.947   2.482   5.689 -0.3932  1.2883 -0.2096
18658THY    HA353762   4.895   2.527   5.605  0.4356  0.3308 -0.9922
18658THY    CA453763   4.969   2.566   5.792 -0.2064 -0.0137 -0.0466
18658THY    HA453764   4.922   2.663   5.788  0.5252  0.8413  0.3663
18658THY    CA553765   5.038   2.529   5.909  0.3166  0.2739  0.2704
18658THY    CM153766   5.049   2.639   6.019 -0.5351 -0.3328  0.8424
18658THY    HM153767   4.951   2.687   6.035  0.2122  0.2158  2.2467
18658THY    HM253768   5.130   2.712   6.009  0.0239  1.8558  0.5981
18658THY    HM353769   5.082   2.596   6.115  1.2538 -0.4446  1.8913
18658THY    CA653770   5.075   2.392   5.930 -0.0355  0.1361 -0.4162
18658THY    HA653771   5.124   2.363   6.023  0.1499 -0.2718 -1.4582
18659THY      O53772   8.739   4.492   7.426 -0.1880  0.3619  0.3939
18659THY     HO53773   8.696   4.528   7.506  0.2717  0.6192  0.3839
18659THY    CA153774   8.847   4.570   7.387 -0.3409  0.7540 -0.2668
18659THY    CA253775   8.978   4.527   7.412  0.2641  0.7666  0.3730
18659THY    CP153776   9.003   4.400   7.497 -0.0197  0.1329  0.9793
18659THY    HP153777   8.916   4.381   7.563 -0.5201  0.0889  2.9305
18659THY    CP253778   9.125   4.405   7.590  0.1070  0.2655  0.3574
18659THY    HP253779   9.157   4.309   7.633 -0.0942 -1.6247 -0.6139
18659THY    HP353780   9.108   4.478   7.670  3.5023  0.2620  1.3382
18659THY    HP453781   9.213   4.454   7.546 -0.0939  0.0511  0.5254
18659THY    CP353782   9.008   4.278   7.401 -0.6063 -0.2182 -0.9694
18659THY    HP553783   9.096   4.280   7.336 -1.2148 -1.0413  0.5563
18659THY    HP653784   8.926   4.286   7.329 -0.3347 -0.6833 -2.2027
18659THY    HP753785   9.002   4.180   7.450 -0.7885  3.1803  0.5962
18659THY    CA353786   9.081   4.583   7.339 -0.0218  0.3712 -0.0677
18659THY    HA353787   9.180   4.541   7.348 -0.4898  1.2438 -1.0419
18659THY    CA453788   9.049   4.692   7.252  0.0266 -0.0219  0.0232
18659THY    HA453789   9.129   4.733   7.191  0.2226  1.1315  1.4283
18659THY    CA553790   8.919   4.748   7.245  0.2824 -0.0110  1.1594
18659THY    CM153791   8.890   4.868   7.164  0.3828 -0.0297  0.7712
18659THY    HM153792   8.926   4.848   7.063  2.5101  1.1343 -1.8399
18659THY    HM253793   8.942   4.952   7.212 -1.0439  0.9622  1.1224
18659THY    HM353794   8.782   4.886   7.157  0.4977 -3.2727  0.8237
18659THY    CA653795   8.816   4.692   7.320  0.7764 -0.3389 -0.6549
18659THY    HA653796   8.716   4.732   7.314 -0.0530  2.1029 -2.1053
18660THY      O53797   1.251   3.741   7.414 -0.0449 -0.4179 -0.1577
18660THY     HO53798   1.253   3.780   7.503  1.3600 -0.3546 -0.3460
18660THY    CA153799   1.335   3.815   7.343  0.4697 -0.1830  0.1193
18660THY    CA253800   1.341   3.812   7.201 -0.7427  0.4929  0.2772
18660THY    CP153801   1.269   3.699   7.132  0.5949 -0.2309 -0.1683
18660THY    HP153802   1.245   3.619   7.204 -4.1640  0.2246  1.3061
18660THY    CP253803   1.349   3.637   7.018 -0.1305  1.0748 -0.8251
18660THY    HP253804   1.302   3.562   6.953 -0.4255  1.0300 -0.6027
18660THY    HP353805   1.436   3.589   7.064  0.4935  1.0863  0.2759
18660THY    HP453806   1.380   3.713   6.945 -1.2074  0.0820 -1.3007
18660THY    CP353807   1.135   3.750   7.078 -0.5795 -0.4319  0.0211
18660THY    HP553808   1.073   3.664   7.051 -1.8551  1.0309  0.4403
18660THY    HP653809   1.158   3.816   6.993  0.2058  0.4002  0.8594
18660THY    HP753810   1.073   3.807   7.149 -2.1855 -0.9463 -1.0069
18660THY    CA353811   1.426   3.900   7.133  0.2259  0.3985  0.1052
18660THY    HA353812   1.418   3.902   7.025  1.3440  0.3149  0.8441
18660THY    CA453813   1.494   4.000   7.203  0.7823 -0.7789 -0.1027
18660THY    HA453814   1.551   4.076   7.150  2.1931 -0.1726 -0.6985
18660THY    CA553815   1.483   4.010   7.345  0.3497 -0.0220 -0.2723
18660THY    CM153816   1.550   4.120   7.420 -0.0087  0.4051  0.2849
18660THY    HM153817   1.589   4.202   7.359  1.1826 -1.6160 -1.6868
18660THY    HM253818   1.634   4.083   7.481 -1.0746  0.8221 -1.5511
18660THY    HM353819   1.474   4.156   7.491  0.7474  3.5529 -3.6390
18660THY    CA653820   1.402   3.916   7.410  0.3972 -0.2404  0.1996
18660THY    HA653821   1.403   3.924   7.519  1.7179 -0.1792 -0.4509
18661THY      O53822   1.643   2.589   5.478  0.0090  0.1303 -0.3157
18661THY     HO53823   1.621   2.627   5.392 -2.3148  0.9493  0.3401
18661THY    CA153824   1.763   2.514   5.460  0.2170  0.2594  0.1795
18661THY    CA253825   1.840   2.474   5.572 -0.0483  0.0494  0.0850
18661THY    CP153826   1.795   2.514   5.714 -0.5470 -0.2655 -0.1408
18661THY    HP153827   1.688   2.537   5.712 -0.3623 -0.4543  0.7280
18661THY    CP253828   1.874   2.629   5.773 -0.2218  0.3904  0.7802
18661THY    HP253829   1.862   2.714   5.705  2.8528 -0.9851  0.2388
18661THY    HP353830   1.977   2.591   5.782 -0.7227 -0.4020 -0.8249
18661THY    HP453831   1.831   2.644   5.873 -3.2387 -0.7436  0.3713
18661THY    CP353832   1.814   2.398   5.804  0.5162 -0.1727 -0.0541
18661THY    HP553833   1.763   2.314   5.756 -0.9449 -0.3101  0.8802
18661THY    HP653834   1.760   2.419   5.897  0.2943 -0.1757 -0.5819
18661THY    HP753835   1.919   2.376   5.828  0.5092  2.3313  2.1054
18661THY    CA353836   1.960   2.410   5.540  0.4332  0.5876  0.0118
18661THY    HA353837   2.035   2.376   5.611  2.3405 -1.0241  0.6012
18661THY    CA453838   1.997   2.370   5.411  0.2273  0.0945  0.1738
18661THY    HA453839   2.089   2.316   5.390  0.2503 -3.0217  1.2399
18661THY    CA553840   1.914   2.409   5.304  0.2022 -0.5773  0.0764
18661THY    CM153841   1.929   2.363   5.165 -0.0545  0.5953  0.5767
18661THY    HM153842   2.013   2.292   5.159 -0.2484  0.2027  0.3787
18661THY    HM253843   1.949   2.446   5.097 -0.8342 -0.8943 -0.4122
18661THY    HM353844   1.842   2.310   5.125 -0.1316  0.5917  0.7078
18661THY    CA653845   1.800   2.484   5.331 -0.1486 -0.3771  0.6988
18661THY    HA653846   1.739   2.500   5.243  1.0025 -1.2537  0.4186
18662THY      O53847   3.146   1.450   4.806  0.0239 -0.5131 -0.3719
18662THY     HO53848   3.228   1.410   4.840  0.6464 -1.0696  0.4025
18662THY    CA153849   3.063   1.465   4.906 -0.2332 -0.4608 -0.6671
18662THY    CA253850   2.930   1.483   4.887  0.7243  0.1427  0.0822
18662THY    CP153851   2.881   1.521   4.744  0.1497  0.6190 -0.2049
18662THY    HP153852   2.965   1.559   4.684 -2.0095 -3.6339 -1.4974
18662THY    CP253853   2.778   1.633   4.744 -0.0577 -0.1559 -0.7108
18662THY    HP253854   2.783   1.677   4.644  0.3240 -0.1523 -0.7435
18662THY    HP353855   2.800   1.709   4.820  0.4902 -0.2302 -0.7918
18662THY    HP453856   2.675   1.600   4.760  0.3874  1.8930 -1.2809
18662THY    CP353857   2.826   1.404   4.664 -0.2490 -0.2538  0.2189
18662THY    HP553858   2.739   1.372   4.721  0.0580  0.4970  0.7006
18662THY    HP653859   2.901   1.324   4.664 -0.7159 -0.5797 -0.2278
18662THY    HP753860   2.802   1.419   4.557  1.2989 -0.5506  0.7525
18662THY    CA353861   2.838   1.478   5.001 -0.3493  0.7770 -0.3057
18662THY    HA353862   2.731   1.485   4.985 -0.1359 -0.7282 -0.0541
18662THY    CA453863   2.893   1.447   5.126  0.7529  0.3667  0.3149
18662THY    HA453864   2.839   1.439   5.220  0.5058  0.2798  0.9513
18662THY    CA553865   3.033   1.440   5.139 -0.7262 -0.2828  0.3019
18662THY    CM153866   3.083   1.429   5.274  0.0536 -0.0421  0.1708
18662THY    HM153867   3.054   1.507   5.345 -0.0830  1.3396 -1.1108
18662THY    HM253868   3.192   1.433   5.278  0.0461  0.0780  0.2424
18662THY    HM353869   3.041   1.332   5.305  0.2254  0.9793  0.4131
18662THY    CA653870   3.118   1.452   5.026 -0.2875  0.2763  0.6760
18662THY    HA653871   3.226   1.453   5.024 -0.2910 -1.7582  0.8506
18663THY      O53872   1.939   7.392   2.506  0.1273  0.2531 -0.0875
18663THY     HO53873   1.906   7.456   2.571 -3.1822 -2.2537  1.0356
18663THY    CA153874   1.921   7.265   2.548 -0.0262  0.1301  0.5691
18663THY    CA253875   1.988   7.156   2.491  0.2653  0.0189  0.3252
18663THY    CP153876   2.097   7.179   2.377  0.8213 -0.6657  0.3878
18663THY    HP153877   2.061   7.261   2.314 -2.0460 -0.6888 -0.7472
18663THY    CP253878   2.111   7.059   2.287  0.5195 -0.4513 -0.2485
18663THY    HP253879   2.019   7.044   2.230 -0.8917  1.3812  1.1270
18663THY    HP353880   2.124   6.967   2.346 -1.0366  0.9438  0.3883
18663THY    HP453881   2.183   7.075   2.205 -0.3717 -1.4970 -1.3414
18663THY    CP353882   2.232   7.209   2.444 -0.2652  0.1355  0.0864
18663THY    HP553883   2.242   7.142   2.530 -1.7098  0.5518  0.3705
18663THY    HP653884   2.226   7.310   2.487 -2.6215 -0.1831  0.1480
18663THY    HP753885   2.317   7.211   2.375 -0.6916 -0.4344  2.7966
18663THY    CA353886   1.955   7.023   2.537 -0.2767  0.2761  0.1026
18663THY    HA353887   2.011   6.936   2.505  0.0997 -0.7817  0.7174
18663THY    CA453888   1.867   7.012   2.646 -0.3852 -0.1947 -0.5733
18663THY    HA453889   1.853   6.914   2.691  0.0580  1.8474  0.2694
18663THY    CA553890   1.812   7.123   2.705 -0.1022 -0.1858 -0.0500
18663THY    CM153891   1.752   7.118   2.844 -0.3027 -0.0353 -0.3970
18663THY    HM153892   1.772   7.208   2.904  2.3092 -1.9739  0.4499
18663THY    HM253893   1.779   7.028   2.900 -0.0515  1.1842  0.4185
18663THY    HM353894   1.643   7.123   2.839 -0.1941 -1.7703  1.9063
18663THY    CA653895   1.835   7.248   2.653  0.2414 -0.0086 -0.0504
18663THY    HA653896   1.804   7.337   2.708  0.5704 -0.5619  0.4069
18664THY      O53897   3.756   2.565   7.193  0.4308  0.1380 -0.2873
18664THY     HO53898   3.737   2.660   7.196 -1.1917  0.2960 -0.5871
18664THY    CA153899   3.727   2.519   7.319  0.0485  0.7120  0.3835
18664THY    CA253900   3.715   2.384   7.345 -0.6921 -1.0187  0.4076
18664THY    CP153901   3.739   2.279   7.239  0.2371 -0.0100  0.3011
18664THY    HP153902   3.769   2.325   7.145  0.6064 -0.2906 -0.4960
18664THY    CP253903   3.613   2.205   7.194  0.2035 -0.3134  0.2814
18664THY    HP253904   3.566   2.158   7.281 -1.0670 -1.2017 -0.1277
18664THY    HP353905   3.636   2.130   7.117  1.2515 -0.4178  0.6859
18664THY    HP453906   3.544   2.281   7.157 -0.0722 -0.8817 -0.2452
18664THY    CP353907   3.849   2.179   7.269 -0.5369 -0.1570  0.5131
18664THY    HP553908   3.949   2.223   7.278 -0.1854  0.8993 -0.4344
18664THY    HP653909   3.861   2.112   7.183 -0.6168  0.2706 -0.0661
18664THY    HP753910   3.837   2.114   7.357 -0.1288  1.7848  2.8952
18664THY    CA353911   3.673   2.343   7.477 -0.0405  0.0242  0.1108
18664THY    HA353912   3.655   2.237   7.497  0.6723  0.9305  0.1522
18664THY    CA453913   3.649   2.436   7.576 -0.1442  0.6633  0.3862
18664THY    HA453914   3.612   2.400   7.672  1.2466  0.1218 -2.7519
18664THY    CA553915   3.669   2.571   7.550 -0.2681 -0.1332  0.7118
18664THY    CM153916   3.645   2.674   7.654  0.2726 -0.0065  0.2488
18664THY    HM153917   3.737   2.718   7.694 -0.1233 -0.9172  1.9738
18664THY    HM253918   3.599   2.632   7.745  1.2911  1.4585  2.1578
18664THY    HM353919   3.580   2.757   7.624 -1.3910 -1.6451 -1.5429
18664THY    CA653920   3.705   2.612   7.420  0.5972  0.1093  0.7379
18664THY    HA653921   3.712   2.720   7.404  1.3681 -1.4086  0.4904
18665THY      O53922   2.833   0.836   2.442  0.3206  0.2839  0.6750
18665THY     HO53923   2.767   0.785   2.493  1.1175  0.6291 -0.0218
18665THY    CA153924   2.766   0.920   2.360 -0.0276 -0.4675  0.7376
18665THY    CA253925   2.829   1.024   2.296 -0.5765 -0.2024  0.4687
18665THY    CP153926   2.979   1.055   2.302 -0.0697  0.1181  0.4211
18665THY    HP153927   3.036   0.976   2.352  3.3984 -2.7650  0.8082
18665THY    CP253928   3.007   1.200   2.350  0.4570  0.2400  0.6649
18665THY    HP253929   3.112   1.221   2.372  0.5054 -1.8993  3.2961
18665THY    HP353930   2.955   1.217   2.446 -1.8898 -1.0349  1.1681
18665THY    HP453931   2.970   1.277   2.281  0.3168  0.8415  1.1441
18665THY    CP353932   3.038   1.034   2.165 -0.3865  0.7508  0.4266
18665THY    HP553933   2.999   1.102   2.089  0.7465 -0.2455  0.0064
18665THY    HP653934   3.017   0.930   2.135  2.5049  0.9214 -0.2967
18665THY    HP753935   3.147   1.044   2.166 -0.2384 -0.7490 -0.7393
18665THY    CA353936   2.752   1.103   2.209 -0.1339 -0.0727 -0.4523
18665THY    HA353937   2.794   1.181   2.146 -3.4468 -0.0183  1.5760
18665THY    CA453938   2.616   1.069   2.190  0.6453 -0.7230 -0.0865
18665THY    HA453939   2.551   1.120   2.119  1.3404 -2.7975 -1.9150
18665THY    CA553940   2.555   0.962   2.258  0.4348  0.1311 -0.1781
18665THY    CM153941   2.401   0.936   2.234  0.2050 -0.0176  0.5499
18665THY    HM153942   2.381   0.868   2.150  0.3511  0.6947 -0.4027
18665THY    HM253943   2.345   1.025   2.204  0.5956 -0.8747  0.5185
18665THY    HM353944   2.345   0.894   2.319  1.1065  0.2403 -0.1639
18665THY    CA653945   2.636   0.881   2.340  0.0943  0.4090 -0.2156
18665THY    HA653946   2.591   0.792   2.385 -1.7513  2.0377  1.4472
18666THY      O53947   7.381   3.005   5.216 -0.1314 -0.2801 -0.3163
18666THY     HO53948   7.385   3.102   5.205 -1.3424 -1.0443 -0.3275
18666THY    CA153949   7.477   2.956   5.130  0.4066 -0.4122  0.1186
18666THY    CA253950   7.459   2.820   5.085  0.3610 -0.2387 -0.2090
18666THY    CP153951   7.329   2.747   5.099  0.7004 -0.0311  0.7535
18666THY    HP153952   7.251   2.817   5.131  0.5349  0.2209  0.4510
18666THY    CP253953   7.353   2.626   5.199  0.0740 -0.2071 -0.3438
18666THY    HP253954   7.439   2.564   5.173  0.4540  3.0881 -1.3734
18666THY    HP353955   7.270   2.554   5.197  0.6777  1.3491 -1.1357
18666THY    HP453956   7.377   2.652   5.303  1.8239 -0.8040  0.5587
18666THY    CP353957   7.279   2.685   4.965  0.4430  0.3409  0.0193
18666THY    HP553958   7.354   2.625   4.912 -0.4372 -2.4234  1.2266
18666THY    HP653959   7.242   2.771   4.909 -1.1994  1.5011  0.1190
18666THY    HP753960   7.188   2.626   4.982 -1.2988 -4.2364  1.0358
18666THY    CA353961   7.568   2.763   5.015  0.0812 -0.1416  0.5916
18666THY    HA353962   7.566   2.663   4.974  0.0814  0.6659  0.2554
18666THY    CA453963   7.680   2.840   4.991 -0.5168 -0.1752 -0.7366
18666THY    HA453964   7.762   2.782   4.949  0.4198 -0.9732  1.1024
18666THY    CA553965   7.689   2.977   5.024  0.4451  0.2109  0.0123
18666THY    CM153966   7.813   3.051   4.991 -0.8389  0.1793 -0.6208
18666THY    HM153967   7.908   3.015   5.032 -0.7168 -1.1108 -1.8274
18666THY    HM253968   7.806   3.156   5.021 -0.7547 -0.9352 -0.2867
18666THY    HM353969   7.827   3.066   4.884  0.0509  0.1029 -1.9105
18666THY    CA653970   7.584   3.032   5.097  0.6550 -0.3215 -0.4290
18666THY    HA653971   7.591   3.136   5.125 -0.2931  0.0471 -0.4578
18667THY      O53972   3.735   8.815   7.455 -0.0903 -0.3806  0.0632
18667THY     HO53973   3.821   8.776   7.433 -0.4573 -0.4804 -0.7078
18667THY    CA153974   3.745   8.819   7.596 -0.0330 -0.0960 -0.1281
18667THY    CA253975   3.635   8.862   7.676  1.0773  0.3772  0.6447
18667THY    CP153976   3.497   8.900   7.612 -1.0374  0.1593 -0.7398
18667THY    HP153977   3.515   8.912   7.504 -1.1588  0.2217  0.0202
18667THY    CP253978   3.446   9.041   7.659 -0.3145  0.2787 -0.6361
18667THY    HP253979   3.520   9.121   7.649  0.5647 -1.5169 -1.6102
18667THY    HP353980   3.405   9.031   7.760  0.1830  0.6834  1.1120
18667THY    HP453981   3.363   9.068   7.592  0.7971  0.2533  3.2778
18667THY    CP353982   3.390   8.777   7.626 -0.3187 -0.5231 -0.4123
18667THY    HP553983   3.426   8.682   7.585 -2.5046 -1.0454 -1.0634
18667THY    HP653984   3.298   8.811   7.578 -0.2196 -0.9304 -0.7047
18667THY    HP753985   3.370   8.775   7.733 -0.2250 -0.4562  1.1511
18667THY    CA353986   3.648   8.864   7.814 -0.1280  0.5693  0.8927
18667THY    HA353987   3.568   8.898   7.879 -0.6068  0.4794 -0.0447
18667THY    CA453988   3.769   8.836   7.870  0.0990 -0.1501 -0.0768
18667THY    HA453989   3.782   8.849   7.977 -0.7965 -0.2076  1.5991
18667THY    CA553990   3.886   8.800   7.797 -0.1455  0.3651 -0.0394
18667THY    CM153991   4.013   8.766   7.871 -0.2454 -0.4971 -0.6820
18667THY    HM153992   4.003   8.661   7.901 -0.2442 -2.2576 -1.2214
18667THY    HM253993   4.034   8.827   7.960  0.1558 -2.4091  2.1753
18667THY    HM353994   4.095   8.782   7.800  0.5782  0.7413  0.9145
18667THY    CA653995   3.874   8.791   7.655 -0.3538 -0.6560 -0.3151
18667THY    HA653996   3.959   8.752   7.600  0.4378 -0.0253  0.4943
18668THY      O53997   5.536   4.978   2.959  0.5399  0.0950 -0.5137
18668THY     HO53998   5.489   5.062   2.971  0.7589  1.4550 -0.5589
18668THY    CA153999   5.508   4.942   2.833 -0.1958  0.2259 -0.0910
18668THY    CA254000   5.545   4.824   2.772 -0.5759  0.0535 -0.5123
18668THY    CP154001   5.634   4.722   2.849  0.3917 -0.1670 -0.1533
18668THY    HP154002   5.678   4.743   2.947 -0.5155 -0.2005  2.2116
18668THY    CP254003   5.764   4.708   2.769  0.0413  0.0634 -0.8759
18668THY    HP254004   5.833   4.640   2.820 -0.0924  2.2563  0.5263
18668THY    HP354005   5.809   4.807   2.766 -1.1006 -2.7193 -0.3520
18668THY    HP454006   5.732   4.682   2.667  3.5419 -0.8149 -2.2383
18668THY    CP354007   5.563   4.579   2.864 -0.1020  0.0928 -0.8848
18668THY    HP554008   5.463   4.592   2.907  0.6113  1.6178 -0.1773
18668THY    HP654009   5.606   4.507   2.935 -2.0696  1.4369 -0.8279
18668THY    HP754010   5.558   4.524   2.769 -0.7069 -0.5957  0.3292
18668THY    CA354011   5.514   4.798   2.636 -0.1326 -0.7372  0.1816
18668THY    HA354012   5.547   4.712   2.578  0.7340 -3.3834  2.1849
18668THY    CA454013   5.436   4.890   2.563  0.1191  0.1273 -0.2119
18668THY    HA454014   5.394   4.880   2.463  0.6113 -0.2142  0.9733
18668THY    CA554015   5.399   5.008   2.625 -0.2378 -0.6559 -0.0819
18668THY    CM154016   5.309   5.100   2.554  0.9037  0.0498 -0.4688
18668THY    HM154017   5.218   5.045   2.526 -0.0258 -1.2449  1.5961
18668THY    HM254018   5.351   5.135   2.459  1.7792  0.3859 -0.5798
18668THY    HM354019   5.284   5.190   2.612  2.6514 -0.2767  0.2580
18668THY    CA654020   5.439   5.039   2.759  0.4667  0.5996 -0.2296
18668THY    HA654021   5.391   5.122   2.809 -1.4757  0.8981 -1.4691
18669THY      O54022   1.479   5.734   2.428  0.1227  0.1961  0.0693
18669THY     HO54023   1.393   5.688   2.428 -0.2651  0.0368  0.7872
18669THY    CA154024   1.503   5.781   2.305 -0.4386 -0.3050 -0.6615
18669THY    CA254025   1.565   5.912   2.287 -0.3403 -0.2441  0.4480
18669THY    CP154026   1.616   5.990   2.406  0.7483 -0.9560 -0.1465
18669THY    HP154027   1.625   5.923   2.493 -2.4285 -0.5552 -0.1889
18669THY    CP254028   1.535   6.113   2.450  0.2505  0.0224 -0.5024
18669THY    HP254029   1.451   6.080   2.511  1.2111  0.7578 -1.6782
18669THY    HP354030   1.505   6.164   2.358 -0.5918  0.8678  0.5772
18669THY    HP454031   1.593   6.183   2.512 -1.9176  0.5418  0.9248
18669THY    CP354032   1.761   6.032   2.371 -0.1249  0.3461 -0.4265
18669THY    HP554033   1.762   6.122   2.309  1.3099 -1.4020 -1.5783
18669THY    HP654034   1.808   5.951   2.314 -0.9339  1.1744 -1.5121
18669THY    HP754035   1.823   6.052   2.459  0.2026 -0.0963  0.6104
18669THY    CA354036   1.577   5.961   2.159  0.1564 -0.0137  0.0920
18669THY    HA354037   1.611   6.063   2.144 -2.4527 -0.7969  0.9333
18669THY    CA454038   1.542   5.880   2.051  0.2602 -0.6021 -0.1980
18669THY    HA454039   1.554   5.926   1.953  4.3505  0.1339  0.7602
18669THY    CA554040   1.494   5.746   2.072  0.1982  0.4922 -0.3384
18669THY    CM154041   1.450   5.668   1.956  0.5268 -0.0946  0.0114
18669THY    HM154042   1.413   5.568   1.979 -2.1328 -2.3381  0.3462
18669THY    HM254043   1.532   5.668   1.884  2.7987  2.2818  2.7578
18669THY    HM354044   1.364   5.712   1.904  1.2018 -0.1341  1.3387
18669THY    CA654045   1.475   5.699   2.202 -0.5186  1.0960 -0.4048
18669THY    HA654046   1.442   5.597   2.220 -0.3991  0.3672 -0.5770
18670THY      O54047   6.204   3.344   6.879  0.6865 -0.3165  0.0475
18670THY     HO54048   6.224   3.300   6.795 -0.4489 -0.6117  0.0767
18670THY    CA154049   6.098   3.432   6.860  0.1945 -0.2142  0.1972
18670THY    CA254050   6.020   3.482   6.965  0.4037  0.0114 -0.2476
18670THY    CP154051   6.032   3.427   7.103  0.1203 -0.5030 -0.5801
18670THY    HP154052   6.139   3.406   7.113  0.0041 -0.0804 -0.9994
18670THY    CP254053   5.964   3.297   7.128 -0.1414  0.3378 -0.1806
18670THY    HP254054   5.856   3.294   7.107  0.1841 -1.5122 -0.4138
18670THY    HP354055   5.981   3.280   7.235 -0.8498  0.4236 -0.4141
18670THY    HP454056   6.018   3.214   7.082  0.4180 -0.3208  0.5348
18670THY    CP354057   6.011   3.536   7.214 -0.3383  0.8026 -0.0346
18670THY    HP554058   5.902   3.543   7.221 -0.3916  0.5340 -0.5372
18670THY    HP654059   6.057   3.628   7.175  1.1605  2.3533 -0.0720
18670THY    HP754060   6.051   3.501   7.310  2.4324 -0.3198 -0.2505
18670THY    CA354061   5.907   3.560   6.944  0.1046  0.3502  0.4597
18670THY    HA354062   5.839   3.603   7.017 -0.5857  0.0352 -0.0760
18670THY    CA454063   5.893   3.598   6.809  0.2737 -0.0568 -0.1135
18670THY    HA454064   5.810   3.660   6.777  0.6100 -0.1106  0.3149
18670THY    CA554065   5.974   3.560   6.703  0.1421 -0.4813 -0.4941
18670THY    CM154066   5.954   3.617   6.570 -0.3102 -0.3784  0.1257
18670THY    HM154067   5.960   3.727   6.566  0.2066  0.7699  0.1538
18670THY    HM254068   5.855   3.589   6.533  0.2484 -2.0418  0.2600
18670THY    HM354069   6.029   3.578   6.501 -0.3810  0.3984 -1.4834
18670THY    CA654070   6.075   3.471   6.730  0.3363  0.8132 -0.1630
18670THY    HA654071   6.153   3.443   6.660  2.0415  1.2890  2.8822
18671THY      O54072   7.167   8.428   7.600  0.0074 -0.2208 -0.1639
18671THY     HO54073   7.210   8.405   7.515  1.6544  0.4448  0.3604
18671THY    CA154074   7.241   8.534   7.631 -0.7950  0.2339 -0.1109
18671THY    CA254075   7.260   8.570   7.762 -0.1573  0.5730 -0.7979
18671THY    CP154076   7.226   8.479   7.879  0.7931  0.3543 -0.6419
18671THY    HP154077   7.169   8.396   7.835  2.5125 -1.3760 -0.9704
18671THY    CP254078   7.137   8.557   7.977 -0.0066 -0.1236 -0.1536
18671THY    HP254079   7.060   8.616   7.927  0.8168  0.1069  1.1609
18671THY    HP354080   7.202   8.623   8.035 -0.4403  0.2471 -0.0495
18671THY    HP454081   7.089   8.492   8.051 -3.1469 -1.6858  0.1867
18671THY    CP354082   7.348   8.425   7.950 -0.4887 -0.1701 -0.3177
18671THY    HP554083   7.405   8.505   7.998 -0.1522 -2.1599  0.6957
18671THY    HP654084   7.414   8.371   7.880  1.1230  0.3472  0.9209
18671THY    HP754085   7.330   8.345   8.023 -2.1080 -1.5580 -1.2904
18671THY    CA354086   7.337   8.685   7.788 -0.3195 -0.4159  0.3713
18671THY    HA354087   7.354   8.727   7.887 -1.1705  0.2581 -0.8111
18671THY    CA454088   7.396   8.755   7.679  0.2418  0.2103  0.1484
18671THY    HA454089   7.452   8.847   7.694 -0.6254 -2.5727  1.2067
18671THY    CA554090   7.379   8.719   7.548  0.3512  0.2722 -0.0270
18671THY    CM154091   7.443   8.800   7.440  0.2372 -0.1768 -0.2918
18671THY    HM154092   7.471   8.735   7.357  0.3673 -0.2543 -0.1381
18671THY    HM254093   7.531   8.850   7.483 -0.0426  0.7368 -0.5612
18671THY    HM354094   7.371   8.871   7.398 -0.8583  3.4136  0.9223
18671THY    CA654095   7.305   8.600   7.526 -0.8049 -0.3782  0.6087
18671THY    HA654096   7.283   8.569   7.424 -0.4684 -0.1268 -0.5075
18672THY      O54097   2.062   7.726   5.817  0.2454  0.4711  0.2805
18672THY     HO54098   2.027   7.805   5.861  2.1203  0.0321  1.4096
18672THY    CA154099   2.072   7.629   5.915 -0.0092  0.4601 -0.9700
18672THY    CA254100   2.111   7.497   5.890  0.6626 -0.2019 -0.1095
18672THY    CP154101   2.109   7.440   5.755  0.6177  0.2248  0.0789
18672THY    HP154102   2.080   7.521   5.686 -1.8330  1.8921  0.7614
18672THY    CP254103   1.995   7.340   5.746 -0.2754 -0.3345  0.0332
18672THY    HP254104   1.904   7.391   5.779 -0.1744  1.0819 -0.6415
18672THY    HP354105   2.026   7.264   5.819 -1.5005 -0.1626 -0.3290
18672THY    HP454106   1.984   7.279   5.656 -1.3785  1.8599 -3.2879
18672THY    CP354107   2.242   7.365   5.719  0.3870 -0.2162  0.3355
18672THY    HP554108   2.317   7.432   5.761  0.5649 -0.0268  0.0182
18672THY    HP654109   2.249   7.343   5.612 -0.7053 -0.2020 -0.2098
18672THY    HP754110   2.249   7.269   5.771 -0.5540 -1.9560 -0.7317
18672THY    CA354111   2.138   7.410   5.999 -0.6988 -0.6813  0.3663
18672THY    HA354112   2.158   7.304   5.988 -1.0215  0.9125  0.1215
18672THY    CA454113   2.127   7.455   6.128 -0.1675  0.0386  0.1194
18672THY    HA454114   2.148   7.382   6.205  1.0032 -0.3692  0.0018
18672THY    CA554115   2.079   7.592   6.153 -0.8248  0.0402  0.3677
18672THY    CM154116   2.076   7.640   6.298  0.2655  0.5120  0.7922
18672THY    HM154117   2.078   7.750   6.297 -1.9102 -2.7535  0.9525
18672THY    HM254118   2.162   7.601   6.354  0.3620 -1.2268 -1.7196
18672THY    HM354119   1.984   7.609   6.348  0.1286  1.0182  1.9724
18672THY    CA654120   2.047   7.676   6.049  0.2115  0.3937  0.3021
18672THY    HA654121   2.017   7.779   6.068  2.3007  0.4278  0.9672
18673THY      O54122   7.512   3.945   4.015  0.2610 -0.2085  0.1323
18673THY     HO54123   7.449   3.954   3.942 -2.2886  1.5959 -1.4437
18673THY    CA154124   7.620   4.016   3.981  0.2384  0.3543 -0.0678
18673THY    CA254125   7.728   4.039   4.069  0.3168 -0.2457  0.9476
18673THY    CP154126   7.741   3.970   4.199 -0.2006 -1.1954 -0.0427
18673THY    HP154127   7.670   3.893   4.232 -2.1006  0.5232  2.2723
18673THY    CP254128   7.716   4.069   4.316 -0.1081  0.0471 -0.1659
18673THY    HP254129   7.788   4.152   4.325  0.0926  2.0675 -0.5102
18673THY    HP354130   7.723   4.027   4.417  1.8504  0.2878  0.6181
18673THY    HP454131   7.615   4.106   4.296  0.5997 -0.7447  1.4467
18673THY    CP354132   7.884   3.909   4.233  0.1537  0.2394  0.1203
18673THY    HP554133   7.908   3.830   4.162 -0.9956 -0.3229  0.2555
18673THY    HP654134   7.878   3.869   4.335  0.0411 -0.0458 -0.6051
18673THY    HP754135   7.965   3.983   4.231 -0.3041  0.7184  0.6466
18673THY    CA354136   7.827   4.126   4.024 -0.0412  0.4607  0.2226
18673THY    HA354137   7.912   4.154   4.086  0.0512  0.4728 -0.0879
18673THY    CA454138   7.821   4.190   3.897 -0.2240 -0.4451  0.1102
18673THY    HA454139   7.899   4.257   3.861 -0.0326  0.5460  0.4309
18673THY    CA554140   7.720   4.157   3.815 -0.0671 -0.3880 -0.2211
18673THY    CM154141   7.718   4.210   3.673  0.2369 -0.4685  0.0948
18673THY    HM154142   7.761   4.311   3.670 -1.2185  1.2190  0.8194
18673THY    HM254143   7.614   4.221   3.641 -0.3610  0.5275 -2.2384
18673THY    HM354144   7.777   4.148   3.604  1.5115  0.1945  0.5215
18673THY    CA654145   7.617   4.075   3.852  0.2343 -0.4561 -0.8835
18673THY    HA654146   7.538   4.052   3.781  0.3752 -0.1542 -2.3789
18674THY      O54147   4.084   1.537   7.618  0.3135  0.1334 -0.8632
18674THY     HO54148   4.160   1.595   7.603  0.9150  1.9532 -1.1220
18674THY    CA154149   4.136   1.432   7.697 -0.4753  0.4492  0.6965
18674THY    CA254150   4.052   1.343   7.776  0.7693 -0.1500  0.1425
18674THY    CP154151   3.896   1.356   7.770  0.0074  0.5041  0.0938
18674THY    HP154152   3.865   1.454   7.729  0.2058  0.5676  0.1833
18674THY    CP254153   3.835   1.325   7.905 -0.1687 -0.0202 -1.1021
18674THY    HP254154   3.828   1.217   7.922 -0.3208 -0.6783 -1.1969
18674THY    HP354155   3.734   1.366   7.920 -0.0781 -2.0470  0.0309
18674THY    HP454156   3.897   1.373   7.982 -0.8697 -0.0470 -0.1213
18674THY    CP354157   3.829   1.269   7.666 -0.1696 -0.3080 -0.2302
18674THY    HP554158   3.824   1.165   7.701 -2.0437 -0.3160 -0.1696
18674THY    HP654159   3.890   1.276   7.575  0.6290  0.0647 -1.7748
18674THY    HP754160   3.729   1.306   7.641  0.1503 -1.3151 -0.0217
18674THY    CA354161   4.108   1.232   7.841 -0.6290 -0.2114  0.4608
18674THY    HA354162   4.042   1.159   7.886  1.0910  0.2872 -0.8427
18674THY    CA454163   4.249   1.224   7.841  0.2822  0.1309  0.4397
18674THY    HA454164   4.294   1.149   7.906 -0.0164 -0.0830  0.0675
18674THY    CA554165   4.327   1.315   7.772  0.6325  0.0055 -0.0406
18674THY    CM154166   4.475   1.313   7.787  0.4272  0.5183  0.5250
18674THY    HM154167   4.532   1.307   7.694 -0.8760 -0.2365 -0.5288
18674THY    HM254168   4.506   1.224   7.844  2.0335  0.5274  1.0490
18674THY    HM354169   4.514   1.399   7.843 -1.2751  2.8695 -0.1255
18674THY    CA654170   4.275   1.419   7.700  0.0936 -0.0859 -0.3829
18674THY    HA654171   4.343   1.484   7.646  1.5508  1.2238 -0.7547
18675THY      O54172   7.416   4.069   3.332  0.5895 -0.4096 -0.3496
18675THY     HO54173   7.489   4.133   3.336  0.2407  0.0647  0.0247
18675THY    CA154174   7.461   3.951   3.374  0.3825 -0.0434 -0.0490
18675THY    CA254175   7.421   3.834   3.310 -0.2185  0.7695 -0.5969
18675THY    CP154176   7.309   3.832   3.206 -0.1084 -1.3025 -0.1861
18675THY    HP154177   7.294   3.934   3.171  1.1514  1.7990  1.1898
18675THY    CP254178   7.174   3.799   3.277 -0.3423 -0.2344 -0.0343
18675THY    HP254179   7.189   3.701   3.324 -1.2320  0.4179  0.1276
18675THY    HP354180   7.102   3.792   3.194 -0.8111 -0.0328  1.9530
18675THY    HP454181   7.144   3.877   3.348  3.0078  0.2961  0.9324
18675THY    CP354182   7.336   3.748   3.085  0.5233 -0.6025  0.5598
18675THY    HP554183   7.442   3.720   3.077  0.7389  1.1236  0.7798
18675THY    HP654184   7.294   3.789   2.992 -3.9170  1.1804  0.5837
18675THY    HP754185   7.293   3.648   3.101  3.5080 -0.2921 -0.7720
18675THY    CA354186   7.481   3.705   3.345 -0.2796  0.4028 -0.1411
18675THY    HA354187   7.449   3.611   3.300 -0.3443 -0.4794  0.2987
18675THY    CA454188   7.579   3.705   3.442  0.0107  0.3336 -0.0554
18675THY    HA454189   7.628   3.616   3.481  0.9776 -0.3019  0.1817
18675THY    CA554190   7.621   3.820   3.508  0.1802 -0.5924 -0.4833
18675THY    CM154191   7.744   3.809   3.597 -0.1323  0.5439 -0.3094
18675THY    HM154192   7.798   3.904   3.590 -1.8413  1.1439  0.7537
18675THY    HM254193   7.807   3.723   3.572 -1.3390  4.0377 -2.3923
18675THY    HM354194   7.719   3.824   3.703 -0.8370  0.0278  3.0557
18675THY    CA654195   7.556   3.947   3.474  0.2396 -0.6691 -0.1059
18675THY    HA654196   7.608   4.037   3.505 -1.5427 -1.5843  1.2967
18676THY      O54197   5.920   7.750   6.513  0.1264 -0.1282 -0.2396
18676THY     HO54198   5.826   7.725   6.515  0.6439  0.8600 -2.2658
18676THY    CA154199   5.949   7.792   6.384  0.1973 -0.5022  0.5268
18676THY    CA254200   6.077   7.807   6.336  0.0735  0.1802 -0.5097
18676THY    CP154201   6.190   7.778   6.434  0.5007  0.3027 -0.0291
18676THY    HP154202   6.165   7.740   6.533 -0.3302  0.0607 -0.1170
18676THY    CP254203   6.257   7.921   6.457  0.0655 -0.1342  0.7945
18676THY    HP254204   6.295   7.967   6.366  1.4827  0.1740  0.3021
18676THY    HP354205   6.337   7.906   6.530 -1.8102  1.8581 -0.1788
18676THY    HP454206   6.188   7.985   6.513 -1.0593 -0.0002 -0.4844
18676THY    CP354207   6.290   7.671   6.381 -0.2730 -0.1929 -0.5339
18676THY    HP554208   6.372   7.665   6.454  0.7599 -1.2970 -0.2711
18676THY    HP654209   6.342   7.712   6.293  0.2915  1.5227  2.7636
18676THY    HP754210   6.251   7.570   6.366 -1.8408 -1.4178  0.2222
18676THY    CA354211   6.101   7.852   6.207  0.3940  0.2069  0.1616
18676THY    HA354212   6.201   7.863   6.167  0.0676 -0.7302 -0.1916
18676THY    CA454213   5.990   7.890   6.122 -0.0159 -0.8602  0.5810
18676THY    HA454214   6.004   7.922   6.019  1.7009 -1.0402 -0.6083
18676THY    CA554215   5.865   7.881   6.170 -0.1596 -0.6051  0.4008
18676THY    CM154216   5.747   7.914   6.077 -0.0856 -0.5177 -0.1420
18676THY    HM154217   5.753   8.017   6.042  4.0160 -0.2662 -0.1128
18676THY    HM254218   5.653   7.913   6.132 -0.7293 -1.4298  2.5950
18676THY    HM354219   5.726   7.845   5.994 -0.1576 -0.3097 -0.3732
18676THY    CA654220   5.845   7.830   6.302  0.5419 -0.0780  0.4690
18676THY    HA654221   5.744   7.821   6.340  0.8543  0.2630 -2.7839
18677THY      O54222   5.501   0.495   3.061  0.5836  0.2850  0.2763
18677THY     HO54223   5.409   0.462   3.063  0.2661 -0.7805  1.0278
18677THY    CA154224   5.560   0.413   2.970 -0.4516  0.0893 -0.4813
18677THY    CA254225   5.579   0.448   2.841 -0.1754  0.1619 -0.2806
18677THY    CP154226   5.524   0.581   2.797 -0.3722 -0.5754  0.1828
18677THY    HP154227   5.550   0.644   2.884 -1.6962  0.1652 -0.2638
18677THY    CP254228   5.376   0.568   2.785  0.5721 -0.2263  0.0059
18677THY    HP254229   5.324   0.662   2.764  0.3650 -0.1813 -0.0989
18677THY    HP354230   5.330   0.541   2.880  1.7611  0.4261  0.2097
18677THY    HP454231   5.358   0.495   2.705 -1.7344 -0.8613  1.1955
18677THY    CP354232   5.599   0.652   2.682  0.5957 -0.1169  0.8244
18677THY    HP554233   5.552   0.750   2.673 -0.0333 -0.2009  0.5222
18677THY    HP654234   5.573   0.593   2.592 -1.0390  0.4419  0.6251
18677THY    HP754235   5.708   0.651   2.694  0.5795  0.7271  3.2855
18677THY    CA354236   5.660   0.369   2.756  0.4788 -0.6080  0.0767
18677THY    HA354237   5.670   0.396   2.652 -0.5350 -0.6855  0.2237
18677THY    CA454238   5.725   0.257   2.814  0.1206 -1.0335  0.0006
18677THY    HA454239   5.785   0.191   2.753  1.3167  1.5763 -1.4703
18677THY    CA554240   5.711   0.232   2.949 -0.3578  0.3950  0.4624
18677THY    CM154241   5.766   0.114   3.005 -0.5327  0.1825  0.0594
18677THY    HM154242   5.756   0.119   3.114 -1.2557  0.0776  1.8569
18677THY    HM254243   5.872   0.106   2.977 -0.8573 -1.2344  0.3932
18677THY    HM354244   5.703   0.031   2.971 -4.4680  1.1200  2.3947
18677THY    CA654245   5.626   0.305   3.027  0.4089 -0.5291  0.9271
18677THY    HA654246   5.600   0.281   3.130  0.0865 -1.4022 -3.1620
18678THY      O54247   8.903   5.957   3.243 -0.7490  0.3878  0.3423
18678THY     HO54248   8.936   5.900   3.171 -2.1517  0.2294 -0.3059
18678THY    CA154249   8.792   5.894   3.288  0.3939 -0.9220 -0.4002
18678THY    CA254250   8.720   5.949   3.401 -0.5259  0.4521 -0.5529
18678THY    CP154251   8.766   6.067   3.482 -0.0000  0.2519 -0.2886
18678THY    HP154252   8.873   6.078   3.463  0.1565  1.4873  0.5489
18678THY    CP254253   8.746   6.060   3.636 -0.3524 -0.7316 -0.7209
18678THY    HP254254   8.806   6.136   3.688 -0.6808  1.0249 -1.6247
18678THY    HP354255   8.767   5.968   3.691 -0.7006  1.1073  0.2603
18678THY    HP454256   8.640   6.076   3.657 -0.2167 -0.3281 -0.3459
18678THY    CP354257   8.708   6.201   3.426 -0.1842 -0.3684  0.3886
18678THY    HP554258   8.599   6.195   3.418 -0.0663 -1.0380 -1.6224
18678THY    HP654259   8.749   6.219   3.326 -1.8936 -0.9896  1.0053
18678THY    HP754260   8.717   6.287   3.493 -1.2263  1.3033 -0.7299
18678THY    CA354261   8.604   5.882   3.435  0.2290 -0.7374  0.1621
18678THY    HA354262   8.556   5.907   3.529 -1.2219 -1.0014 -1.4569
18678THY    CA454263   8.559   5.767   3.364 -0.0565  0.0972  0.2121
18678THY    HA454264   8.458   5.732   3.386 -1.4927 -0.0567  3.8337
18678THY    CA554265   8.631   5.722   3.252  0.1258  0.5495  0.0665
18678THY    CM154266   8.588   5.600   3.172  0.0296 -0.3468  0.0089
18678THY    HM154267   8.638   5.508   3.207 -1.2772  2.4660  0.2595
18678THY    HM254268   8.585   5.623   3.065  0.9686 -0.1743  1.0639
18678THY    HM354269   8.483   5.589   3.200  0.3054  0.8771  0.3357
18678THY    CA654270   8.743   5.786   3.212 -0.3203 -0.4839 -0.0317
18678THY    HA654271   8.793   5.748   3.124 -1.2548 -0.6541 -0.9001
18679THY      O54272   9.276   4.923   4.633  0.9676 -0.2372  0.2262
18679THY     HO54273   9.338   4.917   4.708 -0.1728  0.7990  0.8347
18679THY    CA154274   9.313   5.032   4.559 -0.8721  0.4333  0.5396
18679THY    CA254275   9.288   5.040   4.419  0.1614 -0.1636 -0.4228
18679THY    CP154276   9.235   4.921   4.335  0.3274  0.0339 -0.0270
18679THY    HP154277   9.160   4.869   4.396 -1.1198  1.4468  3.3988
18679THY    CP254278   9.345   4.824   4.291 -0.5005  0.4212  0.3866
18679THY    HP254279   9.324   4.748   4.215  0.3673 -1.4252  1.9121
18679THY    HP354280   9.392   4.777   4.378 -1.9785  0.8590 -0.3497
18679THY    HP454281   9.435   4.871   4.251 -0.3992 -0.7077 -0.7344
18679THY    CP354282   9.152   4.982   4.213  0.1253 -0.2856  0.7786
18679THY    HP554283   9.068   5.049   4.237 -0.3359  0.4328 -0.0347
18679THY    HP654284   9.104   4.898   4.162  1.6987  1.9697 -1.6368
18679THY    HP754285   9.217   5.031   4.140  0.2879  0.4956  1.7636
18679THY    CA354286   9.341   5.155   4.353 -0.2810  0.0133 -0.5783
18679THY    HA354287   9.347   5.153   4.244  1.9648  0.0936 -1.5045
18679THY    CA454288   9.407   5.257   4.428 -0.3561  0.2645 -0.0342
18679THY    HA454289   9.458   5.334   4.372 -1.5371 -0.0638  0.5322
18679THY    CA554290   9.429   5.245   4.566 -0.1966 -0.2745 -0.3015
18679THY    CM154291   9.516   5.348   4.632 -0.2181  0.5026  0.5400
18679THY    HM154292   9.582   5.290   4.698  0.5266  1.6766  2.6134
18679THY    HM254293   9.460   5.424   4.688  0.1914  0.1684  1.0924
18679THY    HM354294   9.575   5.401   4.556  0.6071  1.1663  0.6010
18679THY    CA654295   9.380   5.133   4.634  0.1686  0.0311 -0.2692
18679THY    HA654296   9.377   5.120   4.741  0.2452  0.0130 -0.4341
18680THY      O54297   0.446   8.141   6.595 -0.1082 -0.0857 -0.0304
18680THY     HO54298   0.383   8.068   6.583 -0.8506  0.2710  0.5426
18680THY    CA154299   0.460   8.212   6.476  0.2493 -0.2772 -0.0826
18680THY    CA254300   0.512   8.340   6.481  0.6358  0.2525  0.6157
18680THY    CP154301   0.556   8.413   6.605 -0.1844 -0.7091 -0.1660
18680THY    HP154302   0.520   8.365   6.698  0.1712 -0.9105 -0.8431
18680THY    CP254303   0.508   8.562   6.624  0.5582  0.0773  0.3723
18680THY    HP254304   0.474   8.582   6.727  3.1558  1.0266  0.3716
18680THY    HP354305   0.420   8.584   6.563  1.0759 -0.8804 -0.1473
18680THY    HP454306   0.587   8.635   6.603  0.6048 -4.2100 -0.6606
18680THY    CP354307   0.706   8.403   6.615 -0.0806 -0.6997 -0.2902
18680THY    HP554308   0.756   8.470   6.544 -0.2860 -0.7948 -0.2384
18680THY    HP654309   0.725   8.297   6.595 -2.3168 -1.5468 -0.5779
18680THY    HP754310   0.726   8.424   6.721  0.1477 -0.1884 -2.8372
18680THY    CA354311   0.520   8.405   6.356 -0.4500  0.2380 -0.4768
18680THY    HA354312   0.565   8.504   6.346 -2.9549  2.1092  0.9697
18680THY    CA454313   0.485   8.336   6.238 -0.2887  0.0227  0.5657
18680THY    HA454314   0.504   8.385   6.143 -1.3862 -0.2877  0.4092
18680THY    CA554315   0.428   8.207   6.242 -0.0264  0.0186 -0.1290
18680THY    CM154316   0.369   8.143   6.123  0.2103  0.2570 -0.2693
18680THY    HM154317   0.352   8.035   6.132  0.1582  0.5531 -0.2362
18680THY    HM254318   0.432   8.150   6.034 -0.7599 -0.4315 -0.0761
18680THY    HM354319   0.268   8.177   6.099  0.5477 -0.2995  0.3708
18680THY    CA654320   0.420   8.145   6.365 -0.1401 -0.0304  0.9611
18680THY    HA654321   0.378   8.045   6.376 -0.7380 -1.3167  1.0622
18681THY      O54322   2.120   5.024   4.491  0.1026  0.0306 -0.6942
18681THY     HO54323   2.032   5.048   4.527 -0.1498 -0.9874 -0.0014
18681THY    CA154324   2.196   4.983   4.600  0.4075  0.3747  0.3910
18681THY    CA254325   2.337   4.955   4.591  0.2483  0.1069  0.1869
18681THY    CP154326   2.413   4.982   4.469 -0.9938 -0.5141 -0.5099
18681THY    HP154327   2.352   4.949   4.384 -0.1382 -1.5179  0.4237
18681THY    CP254328   2.540   4.894   4.452 -0.3618 -0.4918 -0.0295
18681THY    HP254329   2.522   4.787   4.462 -1.9364 -2.2693  0.0096
18681THY    HP354330   2.619   4.936   4.515 -1.8381 -1.0062  3.9633
18681THY    HP454331   2.567   4.907   4.347 -0.3150 -0.5147 -0.3155
18681THY    CP354332   2.452   5.138   4.454  0.0702 -0.0855 -0.0453
18681THY    HP554333   2.489   5.162   4.354 -0.6293 -0.8553 -1.9613
18681THY    HP654334   2.528   5.161   4.529  1.2656 -1.1331 -0.4863
18681THY    HP754335   2.365   5.202   4.473  0.3034  0.4393  0.1115
18681THY    CA354336   2.392   4.910   4.716 -0.5355  0.1126 -0.1398
18681THY    HA354337   2.498   4.885   4.720 -0.6373  0.4065 -0.5265
18681THY    CA454338   2.315   4.891   4.836  0.2701 -0.1077 -0.5361
18681THY    HA454339   2.362   4.856   4.928 -0.5930  0.7336  0.4449
18681THY    CA554340   2.182   4.944   4.834 -0.5013  0.3528  0.2939
18681THY    CM154341   2.093   4.933   4.961 -0.4725  0.0260  0.2423
18681THY    HM154342   2.010   4.869   4.929 -0.5695 -1.7459  1.1893
18681THY    HM254343   2.063   5.035   4.989  0.9708  0.3973  0.5877
18681THY    HM354344   2.152   4.889   5.041 -0.4197 -0.2997 -0.2834
18681THY    CA654345   2.128   4.985   4.719  0.2771  0.2917  0.5565
18681THY    HA654346   2.025   5.016   4.726 -0.0408 -0.7204 -0.2430
18682THY      O54347   3.631   5.643   6.227  0.4217 -0.3706 -0.0852
18682THY     HO54348   3.678   5.714   6.273  0.9197  1.3129 -1.4364
18682THY    CA154349   3.729   5.547   6.203 -0.4678 -0.6781  0.0807
18682THY    CA254350   3.691   5.411   6.174  0.7915 -0.4053  0.2060
18682THY    CP154351   3.540   5.381   6.151  0.1680 -0.5709 -0.2181
18682THY    HP154352   3.482   5.432   6.229  0.6518  0.7619 -1.6416
18682THY    CP254353   3.500   5.234   6.153  0.1041  0.6304  0.1335
18682THY    HP254354   3.510   5.192   6.052 -1.8386  1.4931 -2.7202
18682THY    HP354355   3.394   5.225   6.179  0.7014  3.8769  1.3518
18682THY    HP454356   3.544   5.156   6.216 -0.8311 -1.1103 -1.8889
18682THY    CP354357   3.501   5.433   6.016  0.5270 -0.1367 -0.3713
18682THY    HP554358   3.409   5.383   5.985  0.9984  1.0476 -2.0855
18682THY    HP654359   3.578   5.398   5.947  0.0933 -1.1629  0.6631
18682THY    HP754360   3.495   5.542   6.008 -0.4365 -0.5118 -0.4505
18682THY    CA354361   3.789   5.314   6.155 -0.8009 -0.6480  0.3078
18682THY    HA354362   3.768   5.214   6.117  2.6183 -0.8824 -0.4259
18682THY    CA454363   3.924   5.348   6.160 -0.6329 -0.1149 -0.2393
18682THY    HA454364   4.003   5.275   6.146 -0.8194  0.6443 -0.5931
18682THY    CA554365   3.958   5.477   6.194  0.1340 -0.4681 -1.0716
18682THY    CM154366   4.100   5.525   6.199  1.0256  0.2304  0.3471
18682THY    HM154367   4.129   5.585   6.112 -2.1601 -0.2446  1.3857
18682THY    HM254368   4.160   5.433   6.197  0.3034 -1.3978 -0.1274
18682THY    HM354369   4.139   5.589   6.279  0.9643 -0.6946  1.5819
18682THY    CA654370   3.864   5.582   6.214 -0.5948 -0.1683  0.3358
18682THY    HA654371   3.896   5.686   6.219 -0.3679 -1.2574  0.3272
18683THY      O54372   5.973   7.813   6.804 -0.0495  0.2014  0.4418
18683THY     HO54373   5.940   7.821   6.712 -1.3435  0.6921  1.1898
18683THY    CA154374   6.078   7.901   6.816  1.4491 -0.1590 -0.0694
18683THY    CA254375   6.206   7.864   6.827 -0.2169 -0.0488 -0.3035
18683THY    CP154376   6.238   7.717   6.854  0.1366  0.2651 -0.5644
18683THY    HP154377   6.166   7.659   6.796 -1.5619 -0.6053  2.2053
18683THY    CP254378   6.223   7.686   7.009 -0.0221  0.4248 -0.6043
18683THY    HP254379   6.126   7.716   7.048 -0.2782 -1.7993  1.9157
18683THY    HP354380   6.302   7.746   7.056  0.1198 -0.1982 -0.2948
18683THY    HP454381   6.226   7.577   7.019  1.6026 -2.5665 -0.9576
18683THY    CP354382   6.379   7.681   6.807  0.1341  0.7454 -0.4615
18683THY    HP554383   6.466   7.736   6.844 -1.1687  3.1894  0.0689
18683THY    HP654384   6.385   7.702   6.699  0.5020  0.4936 -1.7958
18683THY    HP754385   6.401   7.576   6.829  0.6475  0.5882 -0.3908
18683THY    CA354386   6.307   7.960   6.812  0.0267 -0.0490  0.3178
18683THY    HA354387   6.414   7.939   6.807  0.2005 -1.2304  1.3439
18683THY    CA454388   6.266   8.094   6.783 -0.5361  0.3000  0.0214
18683THY    HA454389   6.337   8.175   6.794  1.7351 -2.4505 -1.4453
18683THY    CA554390   6.127   8.129   6.788 -0.0716  0.1554 -0.1711
18683THY    CM154391   6.077   8.269   6.779 -0.4736  0.2224  0.6695
18683THY    HM154392   5.971   8.284   6.803 -0.4546  0.6259  0.1879
18683THY    HM254393   6.097   8.294   6.674  1.0074  0.2528 -0.2609
18683THY    HM354394   6.138   8.342   6.833 -1.1960  0.3199  1.2030
18683THY    CA654395   6.035   8.032   6.813 -0.0552 -0.1384 -0.3876
18683THY    HA654396   5.930   8.057   6.810 -0.0392 -1.7090 -0.3614
18684THY      O54397   5.552   5.521   3.839  0.1961 -0.1331  0.1847
18684THY     HO54398   5.504   5.586   3.893 -2.0673 -1.5176 -0.2132
18684THY    CA154399   5.582   5.421   3.923  0.5809  0.4736 -0.6042
18684THY    CA254400   5.695   5.335   3.898  0.3305  0.4210 -0.8299
18684THY    CP154401   5.772   5.331   3.768  0.6543  0.5149 -0.0436
18684THY    HP154402   5.758   5.417   3.702 -0.4068  0.6374 -0.1095
18684THY    CP254403   5.728   5.209   3.677 -0.1404  0.0978 -0.2500
18684THY    HP254404   5.774   5.212   3.577 -0.7270 -0.1857 -0.5388
18684THY    HP354405   5.620   5.195   3.662  0.0268 -1.9368  0.2981
18684THY    HP454406   5.765   5.118   3.725 -1.5612  0.7163 -0.5285
18684THY    CP354407   5.925   5.318   3.787  0.2342  0.4945  0.1190
18684THY    HP554408   5.956   5.398   3.855 -1.6480  3.0998 -1.2398
18684THY    HP654409   5.965   5.335   3.686 -1.6440  0.0704  2.8324
18684THY    HP754410   5.954   5.217   3.818 -0.2338 -0.3627 -0.2875
18684THY    CA354411   5.723   5.242   4.001 -0.7004  0.0190  0.1994
18684THY    HA354412   5.805   5.172   3.985 -0.7650 -0.5155  0.2471
18684THY    CA454413   5.657   5.237   4.126 -0.8629  0.4886 -0.1368
18684THY    HA454414   5.696   5.173   4.204 -0.9923 -0.3414 -1.2577
18684THY    CA554415   5.564   5.339   4.152 -0.1679  0.6838  0.1217
18684THY    CM154416   5.497   5.331   4.292 -0.1589  0.6719  0.0698
18684THY    HM154417   5.433   5.417   4.314  0.4596 -0.1340  0.7568
18684THY    HM254418   5.583   5.318   4.358  1.3001 -0.9455  1.0647
18684THY    HM354419   5.430   5.244   4.297  1.3499  4.4057 -1.0659
18684THY    CA654420   5.529   5.428   4.051 -0.3111 -0.0082  0.0528
18684THY    HA654421   5.452   5.504   4.062 -0.5188 -2.7814  0.3410
18685THY      O54422   8.323   1.765   7.095 -0.5174  0.0382 -0.2205
18685THY     HO54423   8.364   1.681   7.123  0.1438 -1.4179 -0.4218
18685THY    CA154424   8.266   1.746   6.974 -0.2959 -0.0424 -0.3624
18685THY    CA254425   8.194   1.847   6.908  0.5479  0.5432  0.4160
18685THY    CP154426   8.176   1.985   6.966  0.1069 -0.0204  0.5639
18685THY    HP154427   8.176   1.973   7.075 -2.6701  0.0091  0.1466
18685THY    CP254428   8.034   2.046   6.943 -0.2598 -0.0338 -0.1796
18685THY    HP254429   7.957   1.970   6.957 -0.6017 -0.3543  0.1065
18685THY    HP354430   8.022   2.098   6.847  0.4114 -0.5008 -0.8671
18685THY    HP454431   8.020   2.112   7.029 -1.3350  0.7323 -1.3666
18685THY    CP354432   8.293   2.079   6.937 -0.4991 -0.4097  1.1183
18685THY    HP554433   8.271   2.169   6.878  0.4149 -1.2487  0.8040
18685THY    HP654434   8.368   2.027   6.878 -0.6356 -0.9054  1.4764
18685THY    HP754435   8.349   2.106   7.028 -2.0777  0.7627  0.6031
18685THY    CA354436   8.134   1.820   6.780  0.1733 -0.1064  0.7111
18685THY    HA354437   8.069   1.888   6.726 -1.2715 -0.2002 -0.6888
18685THY    CA454438   8.138   1.689   6.736  0.1716  0.4165  0.2817
18685THY    HA454439   8.082   1.659   6.648  0.5522  0.2133  0.1535
18685THY    CA554440   8.209   1.588   6.805  0.2926 -0.8965  0.3457
18685THY    CM154441   8.209   1.441   6.761  0.1415 -0.1801  0.0204
18685THY    HM154442   8.238   1.438   6.656  2.6583  0.4694 -0.2684
18685THY    HM254443   8.105   1.408   6.776  0.1673  3.5821  1.1467
18685THY    HM354444   8.270   1.370   6.818  0.0774  2.3643  1.8838
18685THY    CA654445   8.275   1.618   6.923  0.2266 -0.5098 -0.0478
18685THY    HA654446   8.323   1.532   6.969  2.3005  1.9527  2.2760
18686THY      O54447   3.473   1.997   3.819 -0.0349  0.0883  0.1711
18686THY     HO54448   3.493   2.089   3.843 -2.5844  1.1303  0.5480
18686THY    CA154449   3.338   1.996   3.802 -0.2213 -0.1121 -0.5160
18686THY    CA254450   3.254   1.909   3.866  0.4075 -0.3204  0.4362
18686THY    CP154451   3.310   1.814   3.973 -0.2818  0.1836 -0.6798
18686THY    HP154452   3.417   1.804   3.953  0.0730 -0.4883  3.0357
18686THY    CP254453   3.234   1.683   3.990  0.2808 -0.4088 -0.0402
18686THY    HP254454   3.247   1.623   3.900 -1.5630 -1.1466  0.5780
18686THY    HP354455   3.125   1.693   3.999  0.3116  2.2397 -1.3695
18686THY    HP454456   3.270   1.623   4.074 -0.9465 -1.3471 -2.1842
18686THY    CP354457   3.294   1.892   4.101 -0.3169  0.1965 -0.3938
18686THY    HP554458   3.316   1.834   4.191 -0.5844  0.9614  0.6513
18686THY    HP654459   3.189   1.918   4.122  0.0281  0.0094  1.2806
18686THY    HP754460   3.354   1.983   4.108 -1.7440 -3.6119  1.0292
18686THY    CA354461   3.116   1.914   3.850 -0.0975 -0.3334 -0.9006
18686THY    HA354462   3.043   1.870   3.917 -0.4034  0.7877  1.2007
18686THY    CA454463   3.063   2.013   3.760 -0.0889  0.9088  0.5757
18686THY    HA454464   2.956   2.025   3.743 -0.1871 -0.0807 -1.3785
18686THY    CA554465   3.153   2.099   3.689 -0.0221 -0.4435  0.2061
18686THY    CM154466   3.107   2.205   3.603 -0.5547  0.8487  0.3836
18686THY    HM154467   3.121   2.300   3.656 -1.0671  1.1985  0.2684
18686THY    HM254468   3.002   2.196   3.574  0.0702 -0.9710 -2.2043
18686THY    HM354469   3.177   2.226   3.521 -0.8388  1.2861  3.4590
18686THY    CA654470   3.284   2.088   3.712 -0.5684  0.5548  0.4006
18686THY    HA654471   3.350   2.168   3.680  1.3174  2.0799 -0.4496
18687THY      O54472   3.755   4.084   7.886  0.6552 -0.5929  0.6086
18687THY     HO54473   3.825   4.050   7.944 -0.5051 -0.9135 -2.6387
18687THY    CA154474   3.753   4.214   7.887  0.0484  0.4416 -0.1672
18687THY    CA254475   3.658   4.287   7.808 -0.8278 -0.0145 -0.2733
18687THY    CP154476   3.552   4.214   7.718  0.0234  0.0785 -0.0221
18687THY    HP154477   3.582   4.114   7.684 -0.5338 -0.9373  0.1400
18687THY    CP254478   3.529   4.281   7.587 -0.7038  0.5814 -0.4367
18687THY    HP254479   3.457   4.363   7.595 -1.3172 -2.2247 -0.6173
18687THY    HP354480   3.471   4.219   7.518 -0.4691  0.1787 -0.2140
18687THY    HP454481   3.616   4.319   7.532 -1.7838 -0.7582  0.1707
18687THY    CP354482   3.423   4.177   7.784 -0.2332  0.0096  0.6641
18687THY    HP554483   3.450   4.120   7.873 -1.0333  1.2995  2.2153
18687THY    HP654484   3.360   4.115   7.719 -0.8634 -0.1287  1.4243
18687THY    HP754485   3.375   4.270   7.816 -0.5232 -0.1839  0.5817
18687THY    CA354486   3.683   4.429   7.801  0.4568 -0.0179  0.2877
18687THY    HA354487   3.616   4.493   7.745  0.2790  0.0114  0.1305
18687THY    CA454488   3.791   4.484   7.867  0.0465  0.5239 -0.1440
18687THY    HA454489   3.812   4.590   7.866 -0.1923  0.8367 -0.0909
18687THY    CA554490   3.881   4.410   7.949 -0.3609 -0.2867 -0.4218
18687THY    CM154491   3.991   4.480   8.031  0.3992  0.1850  0.0474
18687THY    HM154492   3.973   4.469   8.139 -0.1141 -0.0355 -1.4643
18687THY    HM254493   4.015   4.587   8.018  1.4656  1.0700 -0.0600
18687THY    HM354494   4.080   4.417   8.030  0.6653 -1.1693  0.4205
18687THY    CA654495   3.857   4.278   7.966  0.2421  0.4235  0.2670
18687THY    HA654496   3.929   4.228   8.029  0.8207 -0.0391  0.5059
18688THY      O54497   2.075   7.147   7.101 -0.1911  0.0286  0.1323
18688THY     HO54498   2.079   7.155   7.005  0.8943  0.1861  2.4939
18688THY    CA154499   2.033   7.265   7.154  0.2883  0.0985 -0.3694
18688THY    CA254500   1.982   7.272   7.289  0.5446 -0.5474 -1.0925
18688THY    CP154501   1.980   7.155   7.386  0.7203  0.6735 -0.0019
18688THY    HP154502   2.028   7.069   7.339  0.0865 -1.2479  0.6346
18688THY    CP254503   1.834   7.119   7.412  0.1496  0.0369 -0.3595
18688THY    HP254504   1.780   7.092   7.320 -0.1102  0.6393 -1.9724
18688THY    HP354505   1.779   7.209   7.444 -2.3531 -0.5719 -1.5787
18688THY    HP454506   1.831   7.036   7.482  0.6055  0.8245  0.2732
18688THY    CP354507   2.035   7.188   7.529 -0.0183  0.5981 -0.0681
18688THY    HP554508   2.034   7.098   7.591 -0.5631 -0.3103 -0.6938
18688THY    HP654509   1.983   7.269   7.582  0.8473  0.9040  0.3053
18688THY    HP754510   2.136   7.233   7.530 -0.3621  1.1975  0.7289
18688THY    CA354511   1.930   7.398   7.329 -0.0487  0.2735 -0.4660
18688THY    HA354512   1.887   7.414   7.427 -0.0441  0.2977 -0.5993
18688THY    CA454513   1.942   7.512   7.234  0.0050  0.0658  0.1133
18688THY    HA454514   1.904   7.609   7.266 -0.6059  0.9014 -0.3917
18688THY    CA554515   2.001   7.501   7.111  0.3694  0.1253  0.0326
18688THY    CM154516   2.002   7.621   7.023 -0.2626  0.3401 -0.1932
18688THY    HM154517   1.901   7.662   7.010  0.0281  1.5330  0.9421
18688THY    HM254518   2.057   7.606   6.929  0.3476  0.9445 -2.0194
18688THY    HM354519   2.050   7.708   7.069  1.5651 -1.8295  0.0271
18688THY    CA654520   2.036   7.375   7.066  0.5979  0.6598  0.3275
18688THY    HA654521   2.066   7.364   6.962  0.3215  0.6213 -0.0897
18689THY      O54522   4.855   8.165   7.516  0.0308 -0.6555 -0.2026
18689THY     HO54523   4.799   8.239   7.487  1.7030  1.9695  2.3042
18689THY    CA154524   4.786   8.050   7.484  0.2434  0.4423 -0.3209
18689THY    CA254525   4.861   7.928   7.479 -0.5257 -0.7480 -0.1795
18689THY    CP154526   5.001   7.919   7.540 -0.1594 -0.0240  0.5595
18689THY    HP154527   5.022   8.022   7.570 -1.5245  0.5546  0.6800
18689THY    CP254528   5.093   7.894   7.419  0.2550 -0.2355  0.7138
18689THY    HP254529   5.078   7.980   7.353  2.5995 -0.3882  1.0481
18689THY    HP354530   5.053   7.806   7.367 -1.0217  0.9455  0.5582
18689THY    HP454531   5.196   7.883   7.454  0.1783 -0.3419 -0.5273
18689THY    CP354532   5.024   7.825   7.654 -0.2049 -0.7408  0.1489
18689THY    HP554533   4.950   7.834   7.734  0.3219 -0.2628  0.2688
18689THY    HP654534   5.120   7.863   7.690  0.1497  0.4674 -1.7522
18689THY    HP754535   5.035   7.718   7.629  0.7611  1.8993 -0.4472
18689THY    CA354536   4.789   7.816   7.435 -1.0231 -0.2310  0.0704
18689THY    HA354537   4.845   7.723   7.427 -0.6580 -0.7567  0.3270
18689THY    CA454538   4.658   7.829   7.388 -0.0260 -0.4416 -0.1407
18689THY    HA454539   4.614   7.737   7.351  1.6239  1.4267 -1.7845
18689THY    CA554540   4.595   7.950   7.386  0.7793 -0.2060  0.2721
18689THY    CM154541   4.451   7.966   7.332 -0.6717  0.3759  0.4983
18689THY    HM154542   4.390   8.038   7.388  0.4916  0.3256  1.5585
18689THY    HM254543   4.403   7.868   7.329 -1.6869 -2.0739  0.9899
18689THY    HM354544   4.444   7.997   7.227 -2.6275  0.8230  1.7117
18689THY    CA654545   4.661   8.065   7.425  0.0749  0.2529  0.4065
18689THY    HA654546   4.609   8.160   7.431  1.1303 -1.7936  1.1758
18690THY      O54547   9.155   3.568   5.573  0.4998 -0.0301 -0.2167
18690THY     HO54548   9.173   3.636   5.640 -1.1735  0.4950 -0.2385
18690THY    CA154549   9.197   3.626   5.456  0.0106  1.1819 -0.8077
18690THY    CA254550   9.125   3.622   5.338  0.1456 -0.1563  0.2608
18690THY    CP154551   8.989   3.545   5.336  0.5881 -0.3812  0.6178
18690THY    HP154552   8.939   3.559   5.432  0.1212 -0.3972 -0.7871
18690THY    CP254553   9.010   3.392   5.329 -0.2031 -0.1241 -0.1560
18690THY    HP254554   9.086   3.356   5.258  2.1534  2.4505 -0.6286
18690THY    HP354555   8.915   3.345   5.302  0.2467  1.3137 -2.0021
18690THY    HP454556   9.032   3.365   5.433  2.2343  0.3539  3.1443
18690THY    CP354557   8.904   3.590   5.215 -0.1677 -1.1169  0.6456
18690THY    HP554558   8.950   3.559   5.120  1.0733  0.0482 -1.2478
18690THY    HP654559   8.903   3.699   5.219 -1.4344 -0.4912  0.6348
18690THY    HP754560   8.800   3.557   5.229 -0.5065  0.7749  2.3442
18690THY    CA354561   9.179   3.685   5.232  0.1080 -0.4529 -0.3295
18690THY    HA354562   9.141   3.669   5.132  1.4618 -1.5100  2.4144
18690THY    CA454563   9.301   3.762   5.240  0.2416  0.4194  0.2020
18690THY    HA454564   9.339   3.818   5.155 -2.5823  0.8563  3.0447
18690THY    CA554565   9.365   3.773   5.360 -0.1201  0.3891  0.6170
18690THY    CM154566   9.486   3.864   5.382  0.6841 -0.5841 -0.2070
18690THY    HM154567   9.464   3.952   5.444 -0.6133 -0.0202 -0.8984
18690THY    HM254568   9.514   3.887   5.279 -1.4176 -1.7723 -2.5401
18690THY    HM354569   9.558   3.801   5.436 -1.0867  1.4895 -0.5948
18690THY    CA654570   9.315   3.693   5.466 -0.5781  0.1836  0.6608
18690THY    HA654571   9.376   3.687   5.555 -0.9512  0.4503  0.7771
18691THY      O54572   1.801   4.806   4.361  0.4218  0.4346  0.0564
18691THY     HO54573   1.881   4.790   4.308 -1.6496 -2.4084 -1.8197
18691THY    CA154574   1.722   4.724   4.298  0.2052 -0.0748  0.2679
18691THY    CA254575   1.588   4.702   4.340 -0.1979 -0.6984  0.4518
18691THY    CP154576   1.532   4.777   4.463  0.2922  0.5864 -0.1592
18691THY    HP154577   1.621   4.809   4.519  0.4068 -0.3312  1.2211
18691THY    CP254578   1.439   4.700   4.552  0.3969  0.0019 -0.0002
18691THY    HP254579   1.352   4.664   4.495 -0.4494  0.3799  1.3959
18691THY    HP354580   1.406   4.766   4.633  1.0703  0.3103 -0.0329
18691THY    HP454581   1.495   4.618   4.598 -0.1628  2.1990  0.7867
18691THY    CP354582   1.462   4.907   4.417 -0.3306  0.1046 -0.3364
18691THY    HP554583   1.367   4.890   4.365 -0.1935 -0.4951  0.6129
18691THY    HP654584   1.536   4.964   4.358  0.3506 -1.0750 -2.3402
18691THY    HP754585   1.432   4.976   4.497  0.7113  0.6076 -0.4517
18691THY    CA354586   1.503   4.609   4.270  0.1673  0.0127  0.1883
18691THY    HA354587   1.399   4.598   4.298  0.2662  0.2523 -0.1319
18691THY    CA454588   1.562   4.543   4.159 -0.0507 -0.3968 -0.2825
18691THY    HA454589   1.502   4.472   4.104 -1.1673 -0.7147  0.8638
18691THY    CA554590   1.696   4.554   4.127 -0.2924 -0.0827  0.4223
18691THY    CM154591   1.751   4.471   4.013  0.1032  0.3184 -0.2255
18691THY    HM154592   1.826   4.522   3.951 -2.1421 -2.4751 -0.0592
18691THY    HM254593   1.680   4.449   3.932  0.2817 -0.4989  1.9625
18691THY    HM354594   1.786   4.372   4.044  0.2009  1.0905  0.0465
18691THY    CA654595   1.777   4.648   4.191 -0.2182 -0.2717  0.3800
18691THY    HA654596   1.878   4.668   4.156 -0.8621 -1.2866  2.0793
18692THY      O54597   6.851   5.861   3.687 -0.9309 -0.7595  0.3874
18692THY     HO54598   6.855   5.871   3.591  0.3037 -0.7585  0.1201
18692THY    CA154599   6.943   5.765   3.720 -0.1128  0.2753  0.3034
18692THY    CA254600   6.995   5.750   3.850 -0.0382  0.2624  1.1768
18692THY    CP154601   6.935   5.822   3.966  0.5662  0.2457  0.1020
18692THY    HP154602   6.834   5.855   3.939 -0.3322  2.7570 -0.3569
18692THY    CP254603   7.024   5.940   3.999 -0.9355 -0.0369  0.9928
18692THY    HP254604   6.991   5.992   4.089 -0.6026  0.1507  0.8815
18692THY    HP354605   7.045   6.000   3.909  0.8930 -0.3119  0.0381
18692THY    HP454606   7.119   5.899   4.035 -2.1735  1.8265 -0.3672
18692THY    CP354607   6.921   5.751   4.099 -0.1216  0.7569  0.4531
18692THY    HP554608   6.862   5.806   4.172  0.4004  0.8352  0.9222
18692THY    HP654609   7.016   5.714   4.140  0.5431 -1.6637 -0.8130
18692THY    HP754610   6.868   5.658   4.076  0.7253  1.9721 -0.3636
18692THY    CA354611   7.102   5.651   3.869 -0.6043 -0.2504  0.5614
18692THY    HA354612   7.153   5.642   3.964  3.4351 -2.2760 -0.1834
18692THY    CA454613   7.155   5.585   3.756 -0.2521 -0.2292 -0.1831
18692THY    HA454614   7.244   5.524   3.766  0.5878 -2.2754  0.6176
18692THY    CA554615   7.107   5.611   3.629  0.7982  0.2013  0.5555
18692THY    CM154616   7.171   5.541   3.518  0.2567  0.5776  0.3901
18692THY    HM154617   7.192   5.610   3.435  0.0310  2.5122  2.9075
18692THY    HM254618   7.101   5.470   3.472  0.2642 -0.6546  1.1419
18692THY    HM354619   7.255   5.482   3.555  0.4896 -1.2978 -0.5280
18692THY    CA654620   7.005   5.705   3.604  0.4361  0.7542 -0.6091
18692THY    HA654621   6.976   5.717   3.500 -1.5609  1.3932  0.7569
18693THY      O54622   0.899   5.830   2.344 -0.3348 -0.3339  0.1338
18693THY     HO54623   0.862   5.772   2.275  0.8662  0.3261 -1.5205
18693THY    CA154624   1.004   5.765   2.411  0.4328 -0.1035  0.2636
18693THY    CA254625   1.086   5.820   2.512  0.5768  0.1385  0.2266
18693THY    CP154626   1.067   5.962   2.560 -0.4934  0.3918  0.2624
18693THY    HP154627   0.960   5.986   2.562 -0.6847  1.9968 -0.5701
18693THY    CP254628   1.144   6.053   2.468  0.1178  0.8206  0.1086
18693THY    HP254629   1.160   6.149   2.517  2.2827  0.1009  0.1679
18693THY    HP354630   1.090   6.064   2.373  2.1243 -0.5044 -0.7921
18693THY    HP454631   1.246   6.019   2.445  0.3608 -0.3745  1.5388
18693THY    CP354632   1.119   5.989   2.704  0.0454  0.8873 -0.2471
18693THY    HP554633   1.062   5.919   2.766  1.3041  2.8178  0.3768
18693THY    HP654634   1.091   6.094   2.718  1.0289  1.2133 -0.0176
18693THY    HP754635   1.228   5.986   2.710  0.1678 -0.9614 -0.4890
18693THY    CA354636   1.190   5.734   2.560  0.7850  0.4749 -0.3937
18693THY    HA354637   1.250   5.769   2.644  1.5085  0.3772 -1.3475
18693THY    CA454638   1.222   5.613   2.508  0.0185 -0.2889  0.2949
18693THY    HA454639   1.295   5.548   2.556 -1.4401  1.3484 -0.2203
18693THY    CA554640   1.143   5.563   2.415  0.3451  0.1864  0.4680
18693THY    CM154641   1.177   5.427   2.350 -0.0502 -0.0914  0.1892
18693THY    HM154642   1.272   5.398   2.396  0.1298  0.7011  1.9525
18693THY    HM254643   1.194   5.443   2.243 -2.1236 -0.1242  2.9676
18693THY    HM354644   1.092   5.358   2.358  2.1451 -2.8750 -3.2232
18693THY    CA654645   1.039   5.639   2.358  0.4969  0.0172  0.5874
18693THY    HA654646   0.979   5.586   2.285  3.9376 -1.1785 -2.0108
18694THY      O54647   6.389   5.874   5.720  0.4137  0.0681  0.0767
18694THY     HO54648   6.349   5.962   5.708 -0.9677 -1.5523 -0.7111
18694THY    CA154649   6.391   5.834   5.855  0.5726  0.2181 -0.2533
18694THY    CA254650   6.418   5.707   5.892 -0.3629  1.0754 -0.0677
18694THY    CP154651   6.443   5.596   5.794 -0.0143  0.0709  0.2922
18694THY    HP154652   6.435   5.627   5.689 -0.9807  0.6087  1.9954
18694THY    CP254653   6.340   5.477   5.815  0.4296  0.2463 -0.1324
18694THY    HP254654   6.364   5.401   5.739  0.2741  0.1461 -0.0803
18694THY    HP354655   6.244   5.527   5.802 -0.1871  2.6011 -0.6086
18694THY    HP454656   6.339   5.429   5.913  3.8550  0.6924  0.4825
18694THY    CP354657   6.580   5.538   5.815 -0.3055 -0.2428  0.4731
18694THY    HP554658   6.598   5.458   5.742 -1.6688 -0.2819  0.1675
18694THY    HP654659   6.593   5.503   5.918 -0.0102 -1.2136 -2.5768
18694THY    HP754660   6.663   5.607   5.800  0.1802 -1.2974 -0.3205
18694THY    CA354661   6.428   5.679   6.026  0.1258 -0.0043  0.6955
18694THY    HA354662   6.451   5.581   6.067 -1.6770  4.6370  1.9319
18694THY    CA454663   6.422   5.782   6.115  0.0552  0.5656  0.1991
18694THY    HA454664   6.435   5.762   6.220  1.3211  0.6484  1.3305
18694THY    CA554665   6.392   5.911   6.082  0.2406 -0.1125 -0.2976
18694THY    CM154666   6.383   6.011   6.186  0.5792  0.5400  0.0196
18694THY    HM154667   6.476   6.005   6.244 -0.1682  2.0164  1.5408
18694THY    HM254668   6.300   5.982   6.252 -0.8356 -1.7192 -1.3683
18694THY    HM354669   6.373   6.110   6.140  0.2245 -1.4970 -0.9338
18694THY    CA654670   6.378   5.936   5.949 -0.4684 -0.1533 -0.3014
18694THY    HA654671   6.363   6.038   5.917  1.1236  1.6894  0.5799
18695THY      O54672   7.041   8.397   2.870  0.2164 -0.0390 -0.5925
18695THY     HO54673   7.132   8.431   2.878 -0.6236 -0.0273  1.8344
18695THY    CA154674   7.054   8.261   2.880 -0.2542 -0.0176 -0.0366
18695THY    CA254675   6.947   8.176   2.862  0.7680  0.3403  0.2697
18695THY    CP154676   6.802   8.233   2.827 -0.3279 -0.0190  0.3283
18695THY    HP154677   6.818   8.336   2.795  1.7461 -1.9465 -0.5086
18695THY    CP254678   6.722   8.233   2.957 -0.1069 -0.7414  0.8966
18695THY    HP254679   6.615   8.253   2.947 -0.1822  0.1067  0.9896
18695THY    HP354680   6.762   8.303   3.031  1.9273  0.6476 -1.5192
18695THY    HP454681   6.723   8.128   2.992 -0.3860  1.6303  1.6123
18695THY    CP354682   6.734   8.152   2.722 -0.8120 -0.8395 -0.3802
18695THY    HP554683   6.670   8.229   2.677 -0.0538  0.4385  1.0362
18695THY    HP654684   6.689   8.057   2.755  1.9540 -1.5268 -2.0556
18695THY    HP754685   6.814   8.128   2.650 -0.5410 -0.8595  0.5380
18695THY    CA354686   6.973   8.034   2.873 -0.3956  0.1282 -0.4073
18695THY    HA354687   6.894   7.964   2.851 -1.2892 -0.0365  0.6337
18695THY    CA454688   7.104   7.993   2.911  0.5858  0.7031  0.0647
18695THY    HA454689   7.121   7.886   2.917 -0.5418  2.5625 -0.0417
18695THY    CA554690   7.203   8.079   2.938  0.0804 -0.6627 -0.2744
18695THY    CM154691   7.337   8.036   2.985  0.0385  0.3774 -0.7670
18695THY    HM154692   7.351   7.928   2.967  1.3492 -0.6573 -0.4432
18695THY    HM254693   7.358   8.063   3.089 -2.2099  0.6050  0.3094
18695THY    HM354694   7.419   8.071   2.922 -0.0364 -0.2138 -1.6076
18695THY    CA654695   7.177   8.216   2.921 -0.3458  0.3027  0.3627
18695THY    HA654696   7.259   8.282   2.948  1.5248 -0.9615 -1.3511
18696THY      O54697   1.030   8.657   3.033  0.1341 -0.5887  0.9234
18696THY     HO54698   1.013   8.739   3.083 -1.0713  1.7923 -0.6983
18696THY    CA154699   1.147   8.678   2.968  0.2085  0.3954  0.2015
18696THY    CA254700   1.206   8.588   2.870 -0.1610 -1.1126  0.1399
18696THY    CP154701   1.126   8.468   2.840 -0.1511 -0.0558 -0.1588
18696THY    HP154702   1.025   8.489   2.877 -0.1496  1.6383 -2.6683
18696THY    CP254703   1.186   8.340   2.907 -0.2005 -0.0282  0.5194
18696THY    HP254704   1.286   8.324   2.865 -0.4090 -0.8053  1.1780
18696THY    HP354705   1.128   8.256   2.867 -1.5557 -0.9310  1.8367
18696THY    HP454706   1.187   8.346   3.016  1.9983 -0.0238  0.8206
18696THY    CP354707   1.119   8.455   2.682 -0.2773 -0.1456 -1.0790
18696THY    HP554708   1.041   8.386   2.650 -1.2493 -0.6246  0.2040
18696THY    HP654709   1.207   8.409   2.635 -0.9310 -1.7050 -0.8156
18696THY    HP754710   1.120   8.556   2.639  1.5905 -0.0193 -0.9996
18696THY    CA354711   1.326   8.624   2.800 -0.4611  0.5792 -0.1191
18696THY    HA354712   1.365   8.566   2.717 -0.5195  0.6469 -0.2567
18696THY    CA454713   1.400   8.735   2.844  0.4510  0.2875 -0.2588
18696THY    HA454714   1.495   8.761   2.798  0.4111  1.3103  1.9030
18696THY    CA554715   1.347   8.815   2.947 -0.3628  0.5499  0.4342
18696THY    CM154716   1.419   8.939   2.989 -0.6792 -0.2568 -0.1395
18696THY    HM154717   1.524   8.907   2.986 -0.7406 -1.3367 -0.2581
18696THY    HM254718   1.385   8.964   3.090 -0.6544 -0.4762  0.7946
18696THY    HM354719   1.401   9.023   2.921 -1.8690 -1.1567 -1.0860
18696THY    CA654720   1.221   8.791   3.003  0.8172  0.0692 -0.3838
18696THY    HA654721   1.179   8.866   3.070  0.8721 -1.3794  0.9852
18697THY      O54722   0.670   8.759   3.237 -0.2301  0.3377 -0.2981
18697THY     HO54723   0.645   8.687   3.176 -0.7007  1.6355 -1.2593
18697THY    CA154724   0.564   8.771   3.321 -0.0514  0.7303  0.7381
18697THY    CA254725   0.521   8.894   3.376 -1.5181 -0.0719  0.8509
18697THY    CP154726   0.577   9.026   3.323  0.3338 -0.5144 -0.7583
18697THY    HP154727   0.661   9.014   3.253  1.0877  0.0905  0.6694
18697THY    CP254728   0.632   9.116   3.440 -0.2968  0.9897 -0.3107
18697THY    HP254729   0.713   9.051   3.477  1.9080 -1.5151  0.8274
18697THY    HP354730   0.549   9.141   3.507 -1.4496  1.0773 -3.8169
18697THY    HP454731   0.674   9.213   3.413  0.2119  1.4886 -0.3828
18697THY    CP354732   0.474   9.109   3.241  0.6501 -0.3455 -0.9695
18697THY    HP554733   0.382   9.131   3.297  1.4970  0.8991 -0.5368
18697THY    HP654734   0.435   9.049   3.157 -0.8618 -1.9984  2.0803
18697THY    HP754735   0.513   9.201   3.195  1.8801  0.9522 -0.8131
18697THY    CA354736   0.420   8.896   3.465  0.8597 -0.2678  0.4771
18697THY    HA354737   0.370   8.983   3.507 -1.6445 -0.3143 -0.8251
18697THY    CA454738   0.354   8.776   3.501  0.4272 -0.4072  0.0259
18697THY    HA454739   0.268   8.774   3.568 -0.1768 -1.0984  1.5259
18697THY    CA554740   0.392   8.656   3.448 -0.2691 -0.3994  0.5750
18697THY    CM154741   0.325   8.531   3.488 -0.1297 -0.4291 -0.4453
18697THY    HM154742   0.340   8.492   3.589 -0.4779 -0.3395 -0.3557
18697THY    HM254743   0.350   8.443   3.427  2.0428  1.5452 -1.3064
18697THY    HM354744   0.220   8.540   3.458  0.5474 -3.3539 -1.0317
18697THY    CA654745   0.493   8.655   3.355 -0.1745 -0.2099 -0.1060
18697THY    HA654746   0.522   8.555   3.321 -0.7764  2.1071 -1.1299
18698THY      O54747   8.850   1.509   2.325  0.0840 -0.2797  0.7563
18698THY     HO54748   8.830   1.418   2.298  3.0116  0.4185 -0.1847
18698THY    CA154749   8.949   1.548   2.241 -0.3645 -0.5831 -0.3301
18698THY    CA254750   8.948   1.677   2.180  0.3667 -0.2248  0.3831
18698THY    CP154751   8.823   1.770   2.212 -0.2305 -0.3685  0.5249
18698THY    HP154752   8.794   1.764   2.318  0.5295  0.1510  3.8925
18698THY    CP254753   8.705   1.731   2.122 -0.5145 -1.1140 -0.6015
18698THY    HP254754   8.718   1.756   2.016  0.2115 -0.7352  0.7635
18698THY    HP354755   8.622   1.801   2.139 -0.1442 -1.2610 -0.1176
18698THY    HP454756   8.664   1.631   2.142 -2.2636  1.2916  0.4826
18698THY    CP354757   8.853   1.922   2.199 -0.5663 -0.5472 -1.2847
18698THY    HP554758   8.884   1.943   2.096 -1.5449 -0.4271  1.0291
18698THY    HP654759   8.929   1.959   2.268  0.3127 -1.6995 -0.8581
18698THY    HP754760   8.756   1.974   2.201 -0.5304  0.4727 -1.2521
18698THY    CA354761   9.045   1.715   2.087  0.2214 -0.1935  0.7320
18698THY    HA354762   9.030   1.802   2.024  0.9769 -1.3387  0.0673
18698THY    CA454763   9.156   1.626   2.066 -0.2694 -0.0102 -0.4179
18698THY    HA454764   9.236   1.661   2.001 -1.1962  0.1562  2.1807
18698THY    CA554765   9.161   1.501   2.128  0.0147  0.8979 -0.1037
18698THY    CM154766   9.268   1.402   2.091 -0.1556  0.5628 -0.0907
18698THY    HM154767   9.247   1.368   1.989  0.1504 -0.4072  2.4531
18698THY    HM254768   9.296   1.329   2.168 -2.3675  0.6526 -0.9142
18698THY    HM354769   9.357   1.466   2.081 -0.2138  2.3471  0.3225
18698THY    CA654770   9.057   1.464   2.209  0.6941  0.3558  0.9301
18698THY    HA654771   9.063   1.370   2.264 -0.7826  1.2071  1.2881
18699THY      O54772   4.742   7.423   6.644 -0.2116 -0.2895 -0.4441
18699THY     HO54773   4.667   7.483   6.656  0.4207  0.6028  0.1960
18699THY    CA154774   4.857   7.495   6.635 -0.4099  0.1813 -0.8017
18699THY    CA254775   4.928   7.555   6.740  0.7632 -0.0503  0.1576
18699THY    CP154776   4.859   7.548   6.866 -0.1632 -1.2579 -0.7560
18699THY    HP154777   4.751   7.567   6.863  0.1214  1.4179  2.0271
18699THY    CP254778   4.912   7.651   6.974 -0.2986  0.2447  0.3773
18699THY    HP254779   4.849   7.661   7.063  0.0888  0.3835  1.9644
18699THY    HP354780   4.915   7.754   6.937  0.6320  1.6125  0.8728
18699THY    HP454781   5.017   7.627   6.996 -0.4534  1.3424  0.6200
18699THY    CP354782   4.876   7.413   6.932  0.1160 -0.8111  0.5610
18699THY    HP554783   4.812   7.349   6.870 -0.3513 -1.2857  1.4684
18699THY    HP654784   4.820   7.406   7.026 -0.9702 -1.4736 -0.0885
18699THY    HP754785   4.977   7.388   6.965 -0.6986 -0.4322 -2.6848
18699THY    CA354786   5.055   7.606   6.721 -0.2130  0.1476 -0.0741
18699THY    HA354787   5.114   7.648   6.801 -1.7379  1.0144  0.4939
18699THY    CA454788   5.106   7.617   6.590  0.3111  0.8196 -0.0347
18699THY    HA454789   5.206   7.657   6.576  0.9774  2.2516 -1.1538
18699THY    CA554790   5.036   7.564   6.479 -0.3860 -0.2147  0.1071
18699THY    CM154791   5.080   7.563   6.341  0.5112 -0.0709  0.1188
18699THY    HM154792   5.186   7.545   6.316  1.1491 -1.0146  4.1430
18699THY    HM254793   5.079   7.668   6.310  3.3317  0.9722  0.5427
18699THY    HM354794   5.016   7.514   6.267  1.2630 -1.9219  1.7849
18699THY    CA654795   4.912   7.504   6.506 -0.0034  0.1756 -0.0194
18699THY    HA654796   4.854   7.455   6.429 -1.1071  0.8298  0.2223
18700THY      O54797   3.406   6.211   1.960  0.1703 -0.4087 -0.0358
18700THY     HO54798   3.345   6.136   1.974  0.4251  0.8045 -0.0292
18700THY    CA154799   3.534   6.169   1.942  0.0485  0.2165  1.5294
18700THY    CA254800   3.644   6.250   1.927  0.0080  0.7027  0.6192
18700THY    CP154801   3.636   6.405   1.917 -0.2416  0.1523  0.7910
18700THY    HP154802   3.540   6.425   1.965 -1.6342 -1.2799 -1.9192
18700THY    CP254803   3.627   6.450   1.764  0.3734 -1.0058  0.6148
18700THY    HP254804   3.562   6.384   1.706  0.8642 -2.6624  1.5331
18700THY    HP354805   3.728   6.433   1.723  1.0593  0.1835  1.6023
18700THY    HP454806   3.599   6.555   1.755 -1.0242  1.2126  0.4857
18700THY    CP354807   3.739   6.485   1.994 -0.0366  0.9018 -0.4650
18700THY    HP554808   3.731   6.459   2.100  2.7645  1.3238  0.0717
18700THY    HP654809   3.728   6.593   1.979  0.9207  1.4945 -0.2730
18700THY    HP754810   3.837   6.458   1.952 -0.5350 -0.5656 -0.1221
18700THY    CA354811   3.777   6.196   1.928 -0.6058 -0.6502  0.4339
18700THY    HA354812   3.865   6.259   1.918 -0.8818 -2.1361  0.6300
18700THY    CA454813   3.783   6.053   1.933  0.4989  0.0096  0.0473
18700THY    HA454814   3.884   6.011   1.932  1.1397 -0.2958  1.5206
18700THY    CA554815   3.672   5.974   1.944 -0.2211 -0.4077 -0.4249
18700THY    CM154816   3.686   5.824   1.949  0.2736  0.4739 -0.3177
18700THY    HM154817   3.789   5.796   1.972  1.1889 -1.5441  1.1705
18700THY    HM254818   3.673   5.779   1.849  2.2626  0.5273 -1.0962
18700THY    HM354819   3.621   5.773   2.021 -3.1072 -2.5666 -0.7805
18700THY    CA654820   3.547   6.028   1.953  0.2401  0.3440 -0.1305
18700THY    HA654821   3.457   5.968   1.960 -0.1273 -1.7067  0.1228
18701THY      O54822   6.484   3.382   6.740 -0.2851  0.1746 -0.3920
18701THY     HO54823   6.547   3.313   6.766  1.4839 -0.6140  0.8369
18701THY    CA154824   6.541   3.429   6.626 -0.0946  0.2207 -0.0960
18701THY    CA254825   6.514   3.564   6.586 -0.7138 -0.4588 -0.0732
18701THY    CP154826   6.406   3.644   6.662 -0.3182  0.2371  0.0969
18701THY    HP154827   6.331   3.572   6.697  0.2089  1.1382 -0.0329
18701THY    CP254828   6.337   3.748   6.569  0.4922 -0.3287  1.2379
18701THY    HP254829   6.407   3.830   6.546  3.4665  1.0335 -0.7545
18701THY    HP354830   6.252   3.785   6.628  0.8660 -0.3717  2.1918
18701THY    HP454831   6.288   3.700   6.484 -2.3790  1.5455  0.5538
18701THY    CP354832   6.482   3.722   6.782  0.8990  0.1367 -0.2227
18701THY    HP554833   6.550   3.653   6.834  1.9698 -0.2501  0.5202
18701THY    HP654834   6.407   3.764   6.849  3.3782  2.1804  1.1930
18701THY    HP754835   6.531   3.809   6.737 -1.5168  0.4390  1.4033
18701THY    CA354836   6.574   3.613   6.473  0.7927 -0.2427  0.0666
18701THY    HA354837   6.561   3.714   6.437  2.3651 -0.3129  0.2751
18701THY    CA454838   6.674   3.531   6.409 -0.8589  0.0317  0.0127
18701THY    HA454839   6.735   3.564   6.326 -0.1303 -0.0569 -1.5242
18701THY    CA554840   6.706   3.402   6.448  0.4357  0.4365 -0.5367
18701THY    CM154841   6.807   3.326   6.369  0.1708 -0.3999  0.1434
18701THY    HM154842   6.794   3.347   6.262 -0.4466 -0.4442 -0.4244
18701THY    HM254843   6.775   3.222   6.367 -1.2335 -0.4879  0.5515
18701THY    HM354844   6.911   3.335   6.400  0.8386 -2.2070 -0.9077
18701THY    CA654845   6.637   3.351   6.554  0.6223  0.1562  0.5204
18701THY    HA654846   6.650   3.246   6.579  0.5990 -2.1377 -0.0827
18702THY      O54847   8.358   7.410   6.907 -0.0850  0.4038  0.0925
18702THY     HO54848   8.262   7.426   6.907  0.0792 -1.3960  1.3435
18702THY    CA154849   8.400   7.478   7.012 -0.4361  0.9621 -0.3774
18702THY    CA254850   8.540   7.495   7.042  0.7716 -0.4597  1.1695
18702THY    CP154851   8.645   7.417   6.960  0.2413 -0.4044 -0.5603
18702THY    HP154852   8.598   7.363   6.877 -0.3790  0.8618 -2.0442
18702THY    CP254853   8.714   7.306   7.027 -0.2395  0.5096 -0.3057
18702THY    HP254854   8.768   7.247   6.952  0.3651  0.1443  0.6806
18702THY    HP354855   8.653   7.239   7.090 -1.0784 -0.7421 -0.7562
18702THY    HP454856   8.793   7.346   7.092  2.3630 -2.1332 -0.8098
18702THY    CP354857   8.748   7.514   6.900 -0.5543  0.0999  0.0430
18702THY    HP554858   8.693   7.592   6.845  1.9302  1.8144  3.2654
18702THY    HP654859   8.823   7.471   6.832 -1.7048 -0.7706 -0.6459
18702THY    HP754860   8.795   7.578   6.975 -0.8137  0.1604  0.1627
18702THY    CA354861   8.572   7.572   7.154 -0.4628 -0.1457 -0.1918
18702THY    HA354862   8.676   7.585   7.181 -0.5069  0.2230 -0.5823
18702THY    CA454863   8.476   7.630   7.233  0.5656  0.2614  0.1736
18702THY    HA454864   8.509   7.699   7.310 -0.5586 -0.1333  1.1947
18702THY    CA554865   8.336   7.602   7.210 -0.4034 -0.0901  0.6974
18702THY    CM154866   8.233   7.647   7.314  0.6584 -0.2506 -0.3060
18702THY    HM154867   8.185   7.565   7.369 -1.0336  0.4121  1.0803
18702THY    HM254868   8.159   7.718   7.274  0.2186  2.7403  1.0482
18702THY    HM354869   8.288   7.700   7.393  0.3235  0.5408 -1.1148
18702THY    CA654870   8.303   7.522   7.093  0.8637 -0.3832 -0.2262
18702THY    HA654871   8.201   7.489   7.081  0.4934  1.4315  0.1192
18703THY      O54872   6.928   3.610   1.772  0.3382  0.0542 -0.4467
18703THY     HO54873   6.981   3.619   1.692 -2.7415 -1.9323  3.8415
18703THY    CA154874   7.015   3.585   1.876  0.4762 -0.6816 -0.4306
18703THY    CA254875   6.996   3.630   2.014 -1.1600  0.5750 -0.1205
18703THY    CP154876   6.871   3.701   2.059  0.2090 -0.6018 -0.0789
18703THY    HP154877   6.831   3.758   1.975 -1.5358 -1.3989 -2.3613
18703THY    CP254878   6.894   3.802   2.169 -0.2360 -0.0363  0.1618
18703THY    HP254879   6.802   3.862   2.181  0.1060 -0.1312  0.7142
18703THY    HP354880   6.976   3.861   2.126 -0.2400 -0.5447 -0.1974
18703THY    HP454881   6.931   3.759   2.262  1.2546 -0.0152  1.4062
18703THY    CP354882   6.774   3.600   2.114 -0.1540  0.3951 -0.3686
18703THY    HP554883   6.820   3.547   2.198  0.1615  0.2159 -0.3865
18703THY    HP654884   6.738   3.524   2.044 -0.0946 -0.0747  0.0295
18703THY    HP754885   6.688   3.656   2.153 -0.0792 -0.7879  0.6250
18703THY    CA354886   7.102   3.603   2.104 -0.3733  0.3631  0.1543
18703THY    HA354887   7.099   3.637   2.207  0.6664  0.0641  1.1879
18703THY    CA454888   7.218   3.531   2.062  0.6915  0.6705  0.3043
18703THY    HA454889   7.305   3.509   2.123  0.4503  1.2314  0.8760
18703THY    CA554890   7.226   3.482   1.933 -0.1500  0.0948  0.2043
18703THY    CM154891   7.335   3.393   1.892 -1.0580  1.0538 -0.0096
18703THY    HM154892   7.385   3.429   1.801 -1.4770  0.2792 -1.2994
18703THY    HM254893   7.293   3.296   1.864  1.8389 -2.9719 -0.3813
18703THY    HM354894   7.413   3.377   1.967 -2.1389  2.0723 -0.6195
18703THY    CA654895   7.132   3.518   1.844  0.3705  0.2009 -0.8846
18703THY    HA654896   7.139   3.488   1.740  0.5207  0.0767 -0.4223
18704THY      O54897   3.453   7.874   6.656  0.2437 -0.2823 -0.2790
18704THY     HO54898   3.378   7.933   6.678  1.0540 -1.5627  1.3233
18704THY    CA154899   3.419   7.818   6.538  0.0610 -0.2662  0.1188
18704THY    CA254900   3.520   7.758   6.454  0.2339  0.0124  0.5086
18704THY    CP154901   3.670   7.762   6.488  0.4414  0.0355  0.7048
18704THY    HP154902   3.679   7.760   6.597  3.1914 -0.1159  1.3037
18704THY    CP254903   3.731   7.890   6.437  0.0231  0.3084 -0.4671
18704THY    HP254904   3.830   7.909   6.481  0.7904 -2.1672  2.1394
18704THY    HP354905   3.665   7.976   6.454  0.6326 -1.6683  0.4644
18704THY    HP454906   3.751   7.885   6.329  1.8893  0.4562  1.8047
18704THY    CP354907   3.751   7.636   6.445 -0.0421  0.4719 -0.3062
18704THY    HP554908   3.756   7.620   6.337 -0.1854  0.4029  0.0888
18704THY    HP654909   3.720   7.547   6.500 -1.0289 -0.6328 -0.6688
18704THY    HP754910   3.857   7.652   6.468 -0.0596  0.6114 -0.3973
18704THY    CA354911   3.480   7.710   6.327 -0.3902  0.1397 -0.4794
18704THY    HA354912   3.550   7.684   6.248  0.4419  0.7293 -0.0957
18704THY    CA454913   3.344   7.709   6.293 -0.9898  0.0210  0.0198
18704THY    HA454914   3.310   7.677   6.195 -0.4957 -0.4833  0.9840
18704THY    CA554915   3.246   7.770   6.374 -0.2968 -0.9341 -0.1452
18704THY    CM154916   3.105   7.785   6.318  0.3586  0.6125 -0.1374
18704THY    HM154917   3.088   7.706   6.244  1.7543  0.0284  0.0648
18704THY    HM254918   3.099   7.881   6.264 -0.8210 -1.0099 -1.0784
18704THY    HM354919   3.034   7.782   6.401 -2.2765 -1.5100 -3.1551
18704THY    CA654920   3.289   7.825   6.494  0.2705  0.2122  0.5545
18704THY    HA654921   3.220   7.882   6.556  0.0948 -0.7223  1.3968
18705THY      O54922   0.263   6.925   4.624  0.0626 -0.2031 -0.1626
18705THY     HO54923   0.297   6.875   4.700 -0.9804  1.3691  1.3791
18705THY    CA154924   0.375   6.964   4.562  0.4863 -0.3495 -0.5311
18705THY    CA254925   0.364   7.049   4.450  0.6680 -0.0858  0.6216
18705THY    CP154926   0.230   7.114   4.412  0.4092 -0.0885 -0.1289
18705THY    HP154927   0.167   7.129   4.501 -2.3334 -1.5507 -2.2131
18705THY    CP254928   0.144   7.020   4.324  0.0777  0.4174 -0.3304
18705THY    HP254929   0.044   7.063   4.315  0.4849  2.2130  1.1193
18705THY    HP354930   0.116   6.926   4.374  0.0815  0.9647 -0.0432
18705THY    HP454931   0.186   7.000   4.224 -0.7359 -0.6412  2.6731
18705THY    CP354932   0.245   7.249   4.352 -0.2097  0.0020 -0.2987
18705THY    HP554933   0.141   7.281   4.349 -1.8155  1.7509 -4.5963
18705THY    HP654934   0.286   7.241   4.250  1.6741  0.5104  1.7246
18705THY    HP754935   0.305   7.310   4.421 -0.1791 -0.3159  0.0383
18705THY    CA354936   0.486   7.107   4.397 -0.6180 -0.1989 -0.2965
18705THY    HA354937   0.474   7.179   4.317 -2.1555 -2.3832 -2.7652
18705THY    CA454938   0.612   7.071   4.448 -0.4253  0.2311  0.2128
18705THY    HA454939   0.698   7.121   4.405  2.4953  1.8054 -3.0435
18705THY    CA554940   0.615   6.982   4.555  0.4337  0.0888 -0.2194
18705THY    CM154941   0.746   6.937   4.614 -0.1735  0.6349  0.2801
18705THY    HM154942   0.821   7.017   4.605 -0.7907 -0.1777  0.7823
18705THY    HM254943   0.797   6.868   4.547  2.0969 -1.4731  3.6702
18705THY    HM354944   0.756   6.903   4.718  1.2646 -0.1817 -2.0431
18705THY    CA654945   0.499   6.929   4.614 -0.7914  0.5448  0.5759
18705THY    HA654946   0.499   6.863   4.700 -0.2391 -0.6556 -1.0318
18706THY      O54947   7.397   5.984   5.412 -0.0372  0.0053 -0.0527
18706THY     HO54948   7.388   6.019   5.502 -0.8603  1.1263 -2.8638
18706THY    CA154949   7.458   6.067   5.330  0.1302  0.4786 -0.7608
18706THY    CA254950   7.481   6.034   5.196 -0.4064  0.3237 -0.2024
18706THY    CP154951   7.444   5.896   5.145  0.3381  0.3161 -0.3651
18706THY    HP154952   7.359   5.855   5.201  0.5389 -0.2602 -1.6247
18706THY    CP254953   7.566   5.805   5.152 -0.4303  0.1628  0.3856
18706THY    HP254954   7.650   5.865   5.114 -1.6512 -3.4037  0.0497
18706THY    HP354955   7.560   5.706   5.106 -2.7204 -0.3320  0.7137
18706THY    HP454956   7.591   5.787   5.257  1.7468 -0.5710 -1.3862
18706THY    CP354957   7.387   5.891   4.998 -0.0246 -0.0064 -0.3003
18706THY    HP554958   7.326   5.803   4.972 -1.5516 -0.0168  0.7305
18706THY    HP654959   7.465   5.895   4.921 -0.1364 -0.1425 -0.7038
18706THY    HP754960   7.309   5.968   4.994 -0.9567  0.1158 -1.2081
18706THY    CA354961   7.544   6.127   5.112  0.2709  0.7565 -0.7628
18706THY    HA354962   7.563   6.115   5.006  1.3189  0.7536  0.6645
18706THY    CA454963   7.575   6.257   5.166 -0.3222  0.1378 -0.0151
18706THY    HA454964   7.633   6.338   5.122  0.5166  2.1774  0.5557
18706THY    CA554965   7.558   6.286   5.297  0.1945  0.0074  0.6072
18706THY    CM154966   7.616   6.416   5.353  0.4900 -0.9281  0.0404
18706THY    HM154967   7.607   6.410   5.462 -0.1039 -1.0456 -2.4018
18706THY    HM254968   7.578   6.503   5.299 -0.0311 -1.0551 -0.2596
18706THY    HM354969   7.725   6.409   5.340  0.3249 -1.8916 -1.1694
18706THY    CA654970   7.500   6.192   5.383 -0.0346 -0.1242  0.3154
18706THY    HA654971   7.474   6.226   5.483 -0.5823 -1.0995  2.9578
18707THY      O54972   1.103   0.987   5.535  0.0669 -0.2309 -0.2115
18707THY     HO54973   1.028   0.924   5.535 -0.2483  3.7866 -0.1054
18707THY    CA154974   1.031   1.103   5.520  0.0815 -0.2766 -0.1592
18707THY    CA254975   1.080   1.223   5.572  0.2939 -0.1217 -0.2150
18707THY    CP154976   1.230   1.224   5.618 -0.3517 -0.2047 -0.5715
18707THY    HP154977   1.287   1.139   5.579  1.4147  0.4977  0.2395
18707THY    CP254978   1.244   1.225   5.771  0.5866 -0.1199  0.4262
18707THY    HP254979   1.350   1.215   5.796  0.6931 -0.8368 -0.3213
18707THY    HP354980   1.186   1.143   5.816  0.6852 -0.8070 -0.0271
18707THY    HP454981   1.197   1.318   5.804 -0.3353  0.1631 -0.1155
18707THY    CP354982   1.294   1.349   5.558  0.5417  0.6889  1.1376
18707THY    HP554983   1.403   1.355   5.567  0.5735  1.9257 -0.4904
18707THY    HP654984   1.256   1.434   5.616 -0.8932  1.4994 -0.0175
18707THY    HP754985   1.255   1.361   5.456  1.9577  0.0202  0.3616
18707THY    CA354986   1.001   1.343   5.566 -0.6949  0.2253  0.7194
18707THY    HA354987   1.046   1.440   5.589 -0.6156  1.4402  0.4187
18707THY    CA454988   0.874   1.333   5.505  0.0690  0.3874  0.2649
18707THY    HA454989   0.805   1.416   5.497 -0.4142  1.9891  0.0608
18707THY    CA554990   0.820   1.211   5.457 -0.1546  0.2454 -0.7255
18707THY    CM154991   0.688   1.219   5.385 -0.4826  0.2697  0.5289
18707THY    HM154992   0.618   1.154   5.438  0.5719  1.4027  0.2905
18707THY    HM254993   0.706   1.187   5.281 -1.4680 -0.2844  1.6783
18707THY    HM354994   0.644   1.319   5.373 -0.7695  1.8739  0.6073
18707THY    CA654995   0.903   1.098   5.471  0.4993 -0.1492  0.2930
18707THY    HA654996   0.872   1.000   5.435  2.4135  0.9344 -0.7752
18708THY      O54997   1.754   8.898   3.229 -0.0372  0.1546 -0.1127
18708THY     HO54998   1.734   8.839   3.304 -0.8439 -0.5960 -0.8025
18708THY    CA154999   1.652   8.980   3.241 -0.7520  0.5352 -0.2999
18708THY    CA255000   1.666   9.111   3.195 -0.6718  0.1383 -0.0738
18708THY    CP155001   1.783   9.148   3.101 -0.5409 -0.1002 -0.3203
18708THY    HP155002   1.873   9.098   3.138 -0.1020 -1.6617 -0.7114
18708THY    CP255003   1.812   9.296   3.107 -0.0821 -0.6066  0.2439
18708THY    HP255004   1.792   9.341   3.205  2.4599 -0.0293  0.2560
18708THY    HP355005   1.761   9.347   3.024 -2.8025  0.4117 -0.6716
18708THY    HP455006   1.919   9.312   3.090 -0.2287 -1.6356  0.2272
18708THY    CP355007   1.764   9.097   2.954 -0.2120 -0.7797 -0.2748
18708THY    HP555008   1.680   9.161   2.924 -0.4141  1.7156  0.7759
18708THY    HP655009   1.731   8.993   2.951  0.2910  1.5937 -0.5748
18708THY    HP755010   1.853   9.117   2.894  1.7819  1.6892 -1.1537
18708THY    CA355011   1.554   9.197   3.201  0.0321  1.0330  0.2226
18708THY    HA355012   1.553   9.293   3.151  1.4832 -1.2620 -0.8479
18708THY    CA455013   1.439   9.163   3.276 -0.5753  0.2557 -0.2899
18708THY    HA455014   1.361   9.238   3.284  0.2924  1.5309  0.5073
18708THY    CA555015   1.432   9.038   3.339 -0.3191  0.6198 -0.7373
18708THY    CM155016   1.307   8.998   3.413 -0.1377 -0.3056  0.1605
18708THY    HM155017   1.227   8.962   3.347 -0.4628  1.4128 -2.5980
18708THY    HM255018   1.272   9.084   3.471 -1.2325  0.9542 -1.0801
18708THY    HM355019   1.329   8.926   3.493  0.7579  3.1533  3.8459
18708THY    CA655020   1.540   8.942   3.314 -0.5280 -0.3995 -0.4554
18708THY    HA655021   1.535   8.839   3.347  1.4995  0.0526 -0.4417
18709THY      O55022   1.326   6.773   5.643  0.5303  0.0026 -0.3529
18709THY     HO55023   1.367   6.709   5.704 -1.7522  0.9299 -1.0335
18709THY    CA155024   1.409   6.876   5.617 -0.7448  0.4630 -0.5322
18709THY    CA255025   1.367   6.997   5.558 -0.0241  0.0233 -0.4573
18709THY    CP155026   1.224   7.010   5.518 -0.3515 -0.7102  0.2021
18709THY    HP155027   1.163   6.922   5.537  0.7489 -0.4793 -0.5313
18709THY    CP255028   1.201   7.026   5.362 -0.2415 -0.0837 -0.3466
18709THY    HP255029   1.240   7.123   5.329  0.5947 -0.8545 -0.9283
18709THY    HP355030   1.095   7.023   5.334 -0.4002  0.5880 -1.5984
18709THY    HP455031   1.251   6.948   5.303 -0.7502 -0.7214 -0.2035
18709THY    CP355032   1.162   7.130   5.592  0.6775 -0.3071 -0.1926
18709THY    HP555033   1.052   7.128   5.597  0.6002  1.0154  2.4137
18709THY    HP655034   1.189   7.230   5.557  1.5129  0.5200 -0.1096
18709THY    HP755035   1.183   7.121   5.700 -1.2515  0.1578  0.2368
18709THY    CA355036   1.464   7.098   5.543 -0.4660  0.2907  0.4794
18709THY    HA355037   1.443   7.190   5.490  2.2544  0.0867  1.0697
18709THY    CA455038   1.593   7.080   5.593  0.0257 -0.2244  0.2818
18709THY    HA455039   1.663   7.163   5.589 -2.7834  0.7139  2.8791
18709THY    CA555040   1.628   6.963   5.659  0.4871 -0.2324  0.2856
18709THY    CM155041   1.759   6.950   5.734  0.0127 -0.8879  0.2429
18709THY    HM155042   1.798   7.052   5.740 -1.5263 -0.4280  0.8357
18709THY    HM255043   1.823   6.888   5.671 -0.6008 -1.6370  0.3668
18709THY    HM355044   1.754   6.907   5.835 -0.1550 -1.1414 -0.3458
18709THY    CA655045   1.540   6.865   5.673  0.6641  0.3853  0.1003
18709THY    HA655046   1.561   6.773   5.726  0.2428 -0.5307 -0.5344
18710THY      O55047   4.044   3.953   5.316  0.8698  0.0815  0.2216
18710THY     HO55048   4.119   3.992   5.364  2.6992 -2.6424  0.3302
18710THY    CA155049   3.990   3.861   5.394  0.0385 -0.1295 -0.5838
18710THY    CA255050   3.871   3.785   5.372  0.1490  0.2592  0.1755
18710THY    CP155051   3.771   3.822   5.254  0.0648 -0.0431  0.0730
18710THY    HP155052   3.810   3.906   5.195 -3.5701  1.0526  2.8290
18710THY    CP255053   3.650   3.888   5.320 -0.3808 -0.9969  0.7246
18710THY    HP255054   3.589   3.814   5.372 -0.1496 -0.2902  1.0231
18710THY    HP355055   3.587   3.932   5.242 -0.0502 -1.7732 -0.1492
18710THY    HP455056   3.681   3.972   5.384  1.0284 -1.4454  0.5885
18710THY    CP355057   3.721   3.705   5.166  0.3805  0.6083 -0.2393
18710THY    HP555058   3.670   3.627   5.224  1.9700  0.6306 -1.3118
18710THY    HP655059   3.806   3.666   5.109  1.4047  1.6124  0.4618
18710THY    HP755060   3.648   3.748   5.097  1.4210 -0.0888  0.4623
18710THY    CA355061   3.837   3.682   5.460 -0.6450 -0.4739 -0.1784
18710THY    HA355062   3.739   3.638   5.451 -0.5348 -0.1612 -0.4927
18710THY    CA455063   3.915   3.661   5.568 -0.2204 -0.6389  0.3426
18710THY    HA455064   3.892   3.587   5.645 -1.0900  0.9815  2.1913
18710THY    CA555065   4.030   3.737   5.593  0.2638  0.0969 -0.5770
18710THY    CM155066   4.108   3.719   5.721 -0.1239  0.2038 -0.2179
18710THY    HM155067   4.134   3.614   5.740  0.1889 -0.1667 -0.2102
18710THY    HM255068   4.051   3.760   5.805 -0.3952 -0.4321  0.7388
18710THY    HM355069   4.201   3.776   5.714 -0.9616 -0.9654  1.0732
18710THY    CA655070   4.072   3.832   5.504  0.2484 -0.2272 -0.4600
18710THY    HA655071   4.161   3.890   5.528  0.2027 -1.9455  0.3740
18711THY      O55072   2.452   7.437   3.642  0.6129 -0.0864 -0.3962
18711THY     HO55073   2.390   7.457   3.570  0.1227  0.8117  1.5959
18711THY    CA155074   2.469   7.551   3.716 -0.3458 -0.6391 -0.7031
18711THY    CA255075   2.563   7.556   3.821  0.7944 -0.3469 -0.1044
18711THY    CP155076   2.653   7.435   3.854  0.1704 -0.3046  0.5031
18711THY    HP155077   2.633   7.361   3.777 -1.3141  0.4194  0.1199
18711THY    CP255078   2.639   7.383   3.999 -0.2181  0.2074  0.1976
18711THY    HP255079   2.536   7.359   4.028  0.6994  2.4390 -1.3236
18711THY    HP355080   2.687   7.453   4.068 -1.9497 -0.5525  2.2417
18711THY    HP455081   2.694   7.289   4.012 -1.1759 -0.7721 -0.5270
18711THY    CP355082   2.798   7.467   3.825  0.3576  0.0298  0.4230
18711THY    HP555083   2.862   7.379   3.837 -2.3486  0.3615 -1.6423
18711THY    HP655084   2.835   7.555   3.879 -3.7213 -0.6614  2.7836
18711THY    HP755085   2.804   7.496   3.720  0.1181 -0.3389 -0.7838
18711THY    CA355086   2.561   7.670   3.910  0.0590  0.1909  0.6064
18711THY    HA355087   2.632   7.687   3.990  0.6473  0.0449 -1.0213
18711THY    CA455088   2.471   7.776   3.887  0.2263 -0.0850 -0.0905
18711THY    HA455089   2.474   7.862   3.953  0.6244  1.4631 -1.2434
18711THY    CA555090   2.380   7.777   3.785  0.1505  0.5226  0.3739
18711THY    CM155091   2.268   7.876   3.769 -0.6303  0.0267  0.4680
18711THY    HM155092   2.231   7.894   3.871  1.5180  0.6438  1.7715
18711THY    HM255093   2.179   7.836   3.720 -0.4186  2.0191 -2.8289
18711THY    HM355094   2.308   7.967   3.723  1.9004  1.1879  0.0303
18711THY    CA655095   2.377   7.660   3.700 -0.4504 -0.4528 -0.5111
18711THY    HA655096   2.303   7.646   3.622  0.2002 -0.9476 -1.2625
18712THY      O55097   4.316   2.718   5.216 -0.1578 -0.6562 -0.2655
18712THY     HO55098   4.231   2.702   5.260 -1.0640 -2.4140 -0.4838
18712THY    CA155099   4.337   2.604   5.142 -0.0009  0.1032  0.1706
18712THY    CA255100   4.456   2.537   5.129 -0.7000 -0.6393 -0.2259
18712THY    CP155101   4.589   2.603   5.181 -0.1795  0.1290  0.0573
18712THY    HP155102   4.560   2.704   5.212 -2.7518 -0.1628 -0.5483
18712THY    CP255103   4.695   2.607   5.063 -0.0144 -0.1020  0.6007
18712THY    HP255104   4.723   2.503   5.042 -2.0186  1.6442 -0.3865
18712THY    HP355105   4.778   2.669   5.098  0.7963 -1.1939  0.1418
18712THY    HP455106   4.639   2.652   4.981 -2.0958  1.9337  1.9907
18712THY    CP355107   4.647   2.535   5.310  0.3133  0.0411 -0.8023
18712THY    HP555108   4.670   2.431   5.286 -1.7108 -1.9658 -0.8596
18712THY    HP655109   4.584   2.528   5.399 -1.2062 -0.8767  0.5677
18712THY    HP755110   4.738   2.589   5.340 -1.4771  0.0118  2.4896
18712THY    CA355111   4.455   2.406   5.070 -0.1468  0.1511 -0.6748
18712THY    HA355112   4.544   2.349   5.044 -0.3414  1.8291 -1.8514
18712THY    CA455113   4.338   2.350   5.024 -0.0636 -0.1295  0.5870
18712THY    HA455114   4.331   2.262   4.960 -0.7602 -2.1667  2.0504
18712THY    CA555115   4.220   2.421   5.039  0.1256  0.0285  0.9931
18712THY    CM155116   4.088   2.373   4.986  0.2992 -0.5536  0.5481
18712THY    HM155117   4.096   2.369   4.877  1.0913 -0.4866 -0.0424
18712THY    HM255118   4.002   2.439   5.003  0.0348  0.7067 -0.0934
18712THY    HM355119   4.071   2.272   5.024 -2.1482  0.2012  1.1783
18712THY    CA655120   4.220   2.546   5.100  0.4906  0.1074 -0.5136
18712THY    HA655121   4.123   2.591   5.121  0.6723  0.9112 -0.4786
18713THY      O55122   0.462   3.785   5.145 -0.5185  0.4132 -0.6320
18713THY     HO55123   0.400   3.790   5.070  1.9197 -1.7866 -1.1143
18713THY    CA155124   0.498   3.649   5.153 -0.5376 -0.0622 -0.2787
18713THY    CA255125   0.533   3.583   5.274 -0.4066 -1.0833 -0.0360
18713THY    CP155126   0.560   3.668   5.400  0.1657  0.5317 -0.0448
18713THY    HP155127   0.582   3.769   5.362  3.7015  0.3993 -0.7456
18713THY    CP255128   0.678   3.617   5.478 -0.0496 -0.2977  0.5556
18713THY    HP255129   0.644   3.536   5.544 -1.7335  0.4461  1.8019
18713THY    HP355130   0.737   3.694   5.529 -0.3049  0.6387  0.1495
18713THY    HP455131   0.752   3.582   5.405  1.9993  1.7714  0.3540
18713THY    CP355132   0.441   3.682   5.494 -0.1787 -0.4161  0.0488
18713THY    HP555133   0.375   3.762   5.460 -0.2620  0.3002  0.2897
18713THY    HP655134   0.472   3.740   5.581  2.5071 -1.3042  0.1083
18713THY    HP755135   0.388   3.591   5.524  0.0064  0.2805  0.1639
18713THY    CA355136   0.552   3.443   5.283 -0.6660  0.3081 -0.3542
18713THY    HA355137   0.574   3.391   5.376 -0.4116  0.3114 -0.2423
18713THY    CA455138   0.555   3.366   5.162 -0.1988 -0.0987  0.0418
18713THY    HA455139   0.585   3.261   5.168  0.5194 -1.3882  0.1543
18713THY    CA555140   0.538   3.439   5.038 -0.1849 -0.8444  0.5899
18713THY    CM155141   0.544   3.363   4.913  0.5543  0.6678  0.1106
18713THY    HM155142   0.470   3.282   4.914  2.3006 -1.8365 -1.6676
18713THY    HM255143   0.644   3.320   4.902  0.4508  0.7924 -0.1654
18713THY    HM355144   0.516   3.430   4.830  1.5459 -1.6457 -2.1602
18713THY    CA655145   0.503   3.573   5.038 -0.1300 -0.3458  0.1597
18713THY    HA655146   0.481   3.620   4.942 -0.7618 -0.1359  0.3030
18714THY      O55147   3.169   6.504   3.941 -0.2057  0.6407 -0.1419
18714THY     HO55148   3.164   6.542   3.852 -0.7621 -0.2036 -2.0993
18714THY    CA155149   3.282   6.425   3.931 -0.2195  0.1475 -0.0082
18714THY    CA255150   3.309   6.336   4.034  0.0710  0.1736 -0.7299
18714THY    CP155151   3.221   6.335   4.159  0.4021  0.1623  0.3515
18714THY    HP155152   3.183   6.437   4.171 -1.4232 -0.3375 -0.2320
18714THY    CP255153   3.290   6.294   4.287 -0.0011 -0.2811  0.0527
18714THY    HP255154   3.396   6.319   4.293  0.6451  0.2415 -2.5360
18714THY    HP355155   3.298   6.184   4.284  0.5780 -0.7531  0.0976
18714THY    HP455156   3.231   6.320   4.375 -0.6042 -0.6662  0.0234
18714THY    CP355157   3.095   6.239   4.152  0.5220  0.6185 -0.0124
18714THY    HP555158   3.131   6.137   4.133 -2.4124 -1.6398 -0.7745
18714THY    HP655159   3.021   6.275   4.079 -0.0034  1.4057  0.5499
18714THY    HP755160   3.042   6.239   4.247 -0.7006 -0.0075  1.6730
18714THY    CA355161   3.404   6.241   4.014 -0.3776 -0.2983  0.0495
18714THY    HA355162   3.413   6.167   4.093 -2.1237 -1.5302 -1.5559
18714THY    CA455163   3.475   6.229   3.891  0.2540 -0.5508 -0.0499
18714THY    HA455164   3.543   6.146   3.872  1.1330 -0.1555  0.5530
18714THY    CA555165   3.441   6.314   3.790 -0.5475  0.4892  0.2305
18714THY    CM155166   3.493   6.290   3.648  0.0534 -0.2131 -0.0119
18714THY    HM155167   3.470   6.186   3.621  0.5828  3.4528 -1.2211
18714THY    HM255168   3.600   6.310   3.637 -0.4972 -2.2463  2.2891
18714THY    HM355169   3.450   6.349   3.567 -0.2396  0.4635  0.7188
18714THY    CA655170   3.350   6.424   3.813  0.3498  0.1253  0.6105
18714THY    HA655171   3.326   6.493   3.732  0.1317 -0.3604 -0.0200
18715THY      O55172   1.981   6.297   6.735 -0.1239  0.4128 -0.4386
18715THY     HO55173   1.975   6.290   6.639  1.6652  0.2547 -0.1685
18715THY    CA155174   1.917   6.409   6.773 -0.0432 -0.3404 -0.4124
18715THY    CA255175   1.941   6.470   6.898  0.7309 -0.5535  0.2766
18715THY    CP155176   2.042   6.413   6.997  0.1828  0.6222 -0.4565
18715THY    HP155177   2.066   6.311   6.965 -0.5493 -1.4703 -0.0194
18715THY    CP255178   1.980   6.399   7.137 -0.1098 -0.0558 -0.1401
18715THY    HP255179   1.902   6.324   7.121 -1.3877  1.4190  0.8226
18715THY    HP355180   1.924   6.488   7.166  0.5731  0.1247  0.2376
18715THY    HP455181   2.044   6.361   7.218 -0.4781  0.3119  0.0156
18715THY    CP355182   2.174   6.487   6.993 -0.2157  0.2224 -0.0335
18715THY    HP555183   2.209   6.502   6.890 -1.2023 -0.2139 -0.5821
18715THY    HP655184   2.247   6.417   7.034  0.2857  1.6731  1.3160
18715THY    HP755185   2.171   6.584   7.043  0.4591 -2.0258  1.2230
18715THY    CA355186   1.885   6.596   6.921 -0.9463  0.1371 -0.1492
18715THY    HA355187   1.900   6.654   7.011 -1.7304 -0.7026  1.3987
18715THY    CA455188   1.805   6.656   6.813 -0.1310 -0.9464 -0.4233
18715THY    HA455189   1.769   6.758   6.827  1.9239 -1.2272  0.3982
18715THY    CA555190   1.784   6.591   6.689  0.1352 -0.2001 -0.0943
18715THY    CM155191   1.698   6.646   6.586 -0.5837  0.2850 -0.5107
18715THY    HM155192   1.697   6.754   6.607  0.3522  1.0525 -0.6451
18715THY    HM255193   1.593   6.615   6.588 -2.0602 -1.2891  3.6723
18715THY    HM355194   1.731   6.622   6.484  0.6332  0.7948 -1.0734
18715THY    CA655195   1.839   6.471   6.675  0.3183  0.6395 -0.1963
18715THY    HA655196   1.827   6.402   6.592  0.4484  1.7339 -1.5837
18716THY      O55197   1.770   4.296   5.805  0.5432  0.3579 -0.3608
18716THY     HO55198   1.725   4.342   5.878  1.8272  0.5550  0.6385
18716THY    CA155199   1.889   4.262   5.849 -0.1261  0.3876 -0.3929
18716THY    CA255200   1.994   4.218   5.766  0.9921  0.1610  0.0522
18716THY    CP155201   1.966   4.183   5.628 -0.6682  1.0096  0.5057
18716THY    HP155202   1.872   4.222   5.585  0.2745 -2.1441 -0.3880
18716THY    CP255203   1.962   4.026   5.611 -0.3098  0.5344 -0.6875
18716THY    HP255204   2.053   3.979   5.650 -0.3190 -0.7300 -1.8148
18716THY    HP355205   1.956   4.008   5.504 -0.2104  0.1559  1.2840
18716THY    HP455206   1.877   3.992   5.672  1.3004  2.9544 -0.6223
18716THY    CP355207   2.073   4.237   5.527  0.4673 -0.2743 -0.0805
18716THY    HP555208   2.080   4.346   5.537 -0.0981 -2.6946  0.2278
18716THY    HP655209   2.053   4.209   5.423 -1.3969  0.0513 -0.0742
18716THY    HP755210   2.176   4.202   5.545  0.4356  2.6142  1.0348
18716THY    CA355211   2.128   4.208   5.817 -0.1226  0.7932 -0.0063
18716THY    HA355212   2.206   4.172   5.751  0.3941  0.8410  0.9978
18716THY    CA455213   2.154   4.239   5.949 -0.1086  0.2515  0.2004
18716THY    HA455214   2.254   4.233   5.991  0.3309 -0.5752  1.5176
18716THY    CA555215   2.052   4.285   6.025  0.2935  0.8081  0.2270
18716THY    CM155216   2.076   4.339   6.157 -0.1307 -0.4937 -0.0702
18716THY    HM155217   1.985   4.355   6.216  0.7653  0.5237  1.5105
18716THY    HM255218   2.133   4.432   6.149  2.6670  0.6593 -1.5384
18716THY    HM355219   2.146   4.275   6.214 -0.1390  0.6423  0.9068
18716THY    CA655220   1.918   4.285   5.978 -0.5070  0.1407 -0.1721
18716THY    HA655221   1.845   4.333   6.042  1.4753  1.2846  1.4338
18717THY      O55222   3.366   7.944   7.019 -0.2777  0.0410  0.8244
18717THY     HO55223   3.438   7.909   6.965 -1.0209 -1.8690  2.0960
18717THY    CA155224   3.381   7.916   7.152  0.0159 -0.1553  0.4109
18717THY    CA255225   3.272   7.925   7.244 -0.5198  0.4614 -0.2776
18717THY    CP155226   3.133   7.977   7.196 -0.6224  0.7692 -0.5581
18717THY    HP155227   3.117   8.002   7.091 -0.6397  0.6836 -0.9306
18717THY    CP255228   3.091   8.103   7.258  0.2987 -0.2684 -0.7935
18717THY    HP255229   2.990   8.130   7.226  0.3926  0.7978  0.9537
18717THY    HP355230   3.157   8.184   7.221  0.1875 -1.1457 -1.0889
18717THY    HP455231   3.082   8.094   7.366 -1.2594 -0.3659 -0.6636
18717THY    CP355232   3.034   7.867   7.218 -0.0077  0.1765 -0.2334
18717THY    HP555233   3.074   7.786   7.156 -0.5022  0.9765 -1.1057
18717THY    HP655234   2.945   7.900   7.164  1.3530 -2.6919 -0.9208
18717THY    HP755235   3.023   7.833   7.322  0.0432  0.8870  1.7996
18717THY    CA355236   3.283   7.882   7.376 -0.0272 -0.4453 -0.0479
18717THY    HA355237   3.208   7.889   7.454 -0.3891 -0.8808  1.2574
18717THY    CA455238   3.414   7.838   7.419  0.1259  0.8019 -0.6904
18717THY    HA455239   3.443   7.821   7.522  0.4951  1.1293  1.6376
18717THY    CA555240   3.523   7.845   7.331  0.3063  0.1037 -0.1058
18717THY    CM155241   3.661   7.837   7.389 -0.1393 -0.0439 -0.4267
18717THY    HM155242   3.734   7.823   7.308  0.7902  0.6806  0.1236
18717THY    HM255243   3.667   7.748   7.453 -1.1177  3.3090  1.7469
18717THY    HM355244   3.693   7.921   7.451  2.8289 -0.0010 -1.4839
18717THY    CA655245   3.510   7.887   7.193  0.0840 -0.8336 -0.0757
18717THY    HA655246   3.599   7.891   7.131  0.4333 -0.4616 -1.4854
18718THY      O55247   0.464   0.488   5.865 -0.2242  0.6335 -0.4795
18718THY     HO55248   0.399   0.433   5.818 -1.6301 -1.5297  2.7249
18718THY    CA155249   0.544   0.539   5.760 -0.3445  0.3292 -0.5774
18718THY    CA255250   0.678   0.565   5.783 -0.3861  0.2436 -0.2573
18718THY    CP155251   0.737   0.548   5.923  0.3537  0.4276  0.1920
18718THY    HP155252   0.656   0.548   5.997 -0.3189 -0.2544  2.3884
18718THY    CP255253   0.839   0.661   5.972 -0.7615 -0.6286  0.1069
18718THY    HP255254   0.915   0.680   5.895 -0.2644  0.1207  1.2258
18718THY    HP355255   0.895   0.614   6.053 -0.0687 -1.8520 -1.2419
18718THY    HP455256   0.783   0.748   6.009  0.4661 -0.4436  0.8376
18718THY    CP355257   0.803   0.403   5.923  0.0560  0.7933  0.4339
18718THY    HP555258   0.735   0.330   5.877  2.0149 -1.2895 -0.1967
18718THY    HP655259   0.845   0.373   6.020  0.9630  0.2784  0.0145
18718THY    HP755260   0.879   0.398   5.845 -0.5519  0.2311 -0.3989
18718THY    CA355261   0.767   0.589   5.684  0.2951  0.3664 -0.4625
18718THY    HA355262   0.871   0.610   5.706  0.0205  0.9495  0.3163
18718THY    CA455263   0.714   0.605   5.557  0.1555  1.0214  0.2862
18718THY    HA455264   0.774   0.636   5.472 -0.7723  0.9326  1.9572
18718THY    CA555265   0.579   0.573   5.526 -0.9004  0.7477  0.0274
18718THY    CM155266   0.529   0.567   5.381 -0.1131  0.1634  0.4996
18718THY    HM155267   0.446   0.637   5.369  0.0123 -1.3815  0.4063
18718THY    HM255268   0.484   0.468   5.363 -2.9146  1.2911  1.4506
18718THY    HM355269   0.612   0.579   5.311 -0.6755 -0.8359 -1.1490
18718THY    CA655270   0.495   0.537   5.630 -0.9558  0.7188 -0.3389
18718THY    HA655271   0.392   0.513   5.604 -0.5114 -2.7243  0.8884
18719THY      O55272   5.245   9.378   5.384  0.3364  0.4032 -0.4339
18719THY     HO55273   5.304   9.456   5.385  0.1067 -2.2892 -0.1056
18719THY    CA155274   5.273   9.313   5.271 -0.0374 -0.8656  0.9534
18719THY    CA255275   5.217   9.186   5.243 -0.0001 -0.0562 -0.2385
18719THY    CP155276   5.133   9.109   5.346 -0.1406 -0.1674  0.3111
18719THY    HP155277   5.187   9.132   5.439  0.5864 -1.1320  2.8992
18719THY    CP255278   5.121   8.953   5.328  0.3189 -0.2200 -0.9095
18719THY    HP255279   5.220   8.910   5.347  1.6940 -0.8300  1.8044
18719THY    HP355280   5.086   8.927   5.227  1.1115 -1.4348  2.2637
18719THY    HP455281   5.054   8.906   5.401  1.4995  1.3352 -0.2729
18719THY    CP355282   4.991   9.165   5.353 -0.0864  0.0506  0.4566
18719THY    HP555283   4.919   9.095   5.396 -2.2738 -0.2482  2.4234
18719THY    HP655284   4.948   9.187   5.254  0.3941 -0.5469 -1.1840
18719THY    HP755285   4.997   9.261   5.405  0.6580 -2.1182  1.6610
18719THY    CA355286   5.232   9.137   5.114  0.4454  0.3591 -0.7163
18719THY    HA355287   5.200   9.037   5.087  1.5905 -1.9517 -0.5274
18719THY    CA455288   5.312   9.206   5.023  0.0142  0.6158  0.7869
18719THY    HA455289   5.323   9.167   4.923  3.0216  0.8400  0.7999
18719THY    CA555290   5.358   9.331   5.056  0.0342  0.0450  0.2232
18719THY    CM155291   5.415   9.418   4.950  0.1198 -1.2098  0.2208
18719THY    HM155292   5.341   9.487   4.909  2.4790 -3.5944  1.4887
18719THY    HM255293   5.468   9.354   4.879  1.2556  2.2305 -3.0549
18719THY    HM355294   5.496   9.482   4.987 -0.1378 -0.2732  0.0312
18719THY    CA655295   5.335   9.388   5.177  0.2941 -0.7262 -0.3578
18719THY    HA655296   5.358   9.493   5.189  1.9348 -1.4944 -0.5903
18720THY      O55297   0.660   8.596   3.000 -0.1428 -0.3429 -0.2499
18720THY     HO55298   0.710   8.607   2.918  1.4743  0.8184  1.8081
18720THY    CA155299   0.684   8.462   3.027 -0.2375  0.2979 -0.0206
18720THY    CA255300   0.643   8.366   2.940  0.1913  0.4530  0.5368
18720THY    CP155301   0.561   8.399   2.809 -0.6570 -0.6060 -0.1089
18720THY    HP155302   0.547   8.506   2.790  2.5215 -0.8164  0.3776
18720THY    CP255303   0.412   8.358   2.818 -0.4815  0.6419 -0.0988
18720THY    HP255304   0.378   8.385   2.919  1.7088  1.8851 -1.7002
18720THY    HP355305   0.398   8.250   2.808 -0.4742 -0.4137 -0.0094
18720THY    HP455306   0.361   8.423   2.747 -1.9392  1.7481  0.0244
18720THY    CP355307   0.639   8.352   2.688 -0.4257 -0.3166  0.5593
18720THY    HP555308   0.659   8.245   2.675  1.3841  0.7823  0.7189
18720THY    HP655309   0.734   8.407   2.686 -1.1535 -0.5276  1.8458
18720THY    HP755310   0.596   8.405   2.601  1.5201 -1.4875  0.3036
18720THY    CA355311   0.674   8.227   2.966 -0.1894  0.4991  0.2147
18720THY    HA355312   0.669   8.148   2.891  3.3092 -1.5089  1.6855
18720THY    CA455313   0.742   8.197   3.083 -0.1363 -0.2749  0.1661
18720THY    HA455314   0.776   8.095   3.097  0.7541 -0.3230  0.4420
18720THY    CA555315   0.764   8.295   3.181 -0.1708 -0.4480  0.6853
18720THY    CM155316   0.820   8.253   3.311 -0.6975  0.2904 -0.3694
18720THY    HM155317   0.775   8.155   3.333  0.5309 -1.6801 -1.4370
18720THY    HM255318   0.785   8.324   3.387 -0.3484 -0.1261  0.2574
18720THY    HM355319   0.929   8.254   3.311 -0.7028  0.0713  0.4998
18720THY    CA655320   0.739   8.427   3.150 -0.0502  0.4814  0.5586
18720THY    HA655321   0.745   8.505   3.226 -0.9179 -0.1629  1.2731
18721THY      O55322   2.903   2.303   5.118  0.0025  0.0687  0.5989
18721THY     HO55323   2.895   2.334   5.026  1.3115 -0.2051  0.1777
18721THY    CA155324   3.005   2.370   5.181 -0.3122  0.9416  0.5969
18721THY    CA255325   3.032   2.367   5.319  0.1090 -0.6004  0.2633
18721THY    CP155326   2.943   2.282   5.403  0.0232 -0.3697  0.4730
18721THY    HP155327   2.847   2.304   5.354  0.7808 -2.7347 -1.1506
18721THY    CP255328   2.933   2.320   5.555 -0.0658  0.4885 -0.2539
18721THY    HP255329   2.855   2.254   5.596  1.6878  2.8675 -0.9943
18721THY    HP355330   2.910   2.424   5.580  0.9115 -0.0201  0.0955
18721THY    HP455331   3.026   2.293   5.607  0.5014  0.2283  1.1317
18721THY    CP355332   2.963   2.131   5.396 -0.6771  0.6345  0.1658
18721THY    HP555333   2.926   2.090   5.301 -1.2897  0.8332  0.2539
18721THY    HP655334   2.933   2.078   5.487 -2.8514  0.0767  0.3347
18721THY    HP755335   3.072   2.119   5.397 -0.7672 -0.9765 -1.1773
18721THY    CA355336   3.138   2.443   5.372  0.0650  0.4889 -0.6959
18721THY    HA355337   3.150   2.444   5.480 -2.8467  0.8953  0.8378
18721THY    CA455338   3.223   2.513   5.286  0.4590 -0.3083 -0.1566
18721THY    HA455339   3.307   2.568   5.327  0.3637  2.1220 -1.6383
18721THY    CA555340   3.204   2.514   5.152  0.6545  0.2226  0.6150
18721THY    CM155341   3.289   2.599   5.060 -0.5326 -0.4341  0.6947
18721THY    HM155342   3.325   2.689   5.111 -0.7657  2.1813 -0.6149
18721THY    HM255343   3.231   2.629   4.972 -0.5270 -2.3027 -3.8690
18721THY    HM355344   3.375   2.543   5.022 -1.2358 -3.6471  1.5917
18721THY    CA655345   3.088   2.447   5.101 -0.5976  0.6172 -0.0655
18721THY    HA655346   3.063   2.453   4.995 -0.4742  0.5918 -0.0057
18722THY      O55347   8.732   1.560   5.442  0.2528  0.5864 -0.3659
18722THY     HO55348   8.643   1.529   5.419 -0.3091  0.1430  1.4861
18722THY    CA155349   8.737   1.677   5.386 -0.4460 -0.0526 -0.0882
18722THY    CA255350   8.829   1.777   5.416 -0.3032 -1.5470  0.2642
18722THY    CP155351   8.938   1.757   5.517  0.2219  0.8168 -0.6159
18722THY    HP155352   8.954   1.649   5.529 -0.1246  1.9612 -0.5601
18722THY    CP255353   8.902   1.809   5.653 -0.6554 -0.0677 -0.4155
18722THY    HP255354   8.992   1.823   5.714 -1.5640  1.1757  0.1646
18722THY    HP355355   8.838   1.741   5.711 -0.8338  2.3278  1.6672
18722THY    HP455356   8.867   1.912   5.648 -0.2763 -0.7061 -0.3124
18722THY    CP355357   9.066   1.826   5.462 -0.1315  0.0991  0.2577
18722THY    HP555358   9.099   1.916   5.516 -1.0770  1.1012  0.0281
18722THY    HP655359   9.069   1.841   5.354  0.9064 -0.0181 -0.6554
18722THY    HP755360   9.139   1.746   5.481  0.1538 -2.8117 -0.2781
18722THY    CA355361   8.810   1.901   5.354  0.3876  0.0969 -0.1661
18722THY    HA355362   8.864   1.991   5.384  0.1485  0.8053 -0.2553
18722THY    CA455363   8.719   1.918   5.248 -0.2741 -0.1869 -0.2471
18722THY    HA455364   8.707   2.019   5.209 -0.3296 -1.2970 -0.6728
18722THY    CA555365   8.640   1.811   5.208  0.3938 -0.4419 -0.5281
18722THY    CM155366   8.521   1.824   5.108 -0.4094  0.4563 -0.7632
18722THY    HM155367   8.473   1.914   5.149  1.5472  0.2451  0.4468
18722THY    HM255368   8.445   1.745   5.113 -1.7870  0.5201  0.5112
18722THY    HM355369   8.538   1.848   5.003  0.3589  0.8872  0.7186
18722THY    CA655370   8.653   1.691   5.277 -0.1347 -0.0577  0.5837
18722THY    HA655371   8.584   1.612   5.249 -0.0635 -1.0152  0.8408
18723THY      O55372   1.325   5.602   7.477 -0.5522  0.5309  0.2834
18723THY     HO55373   1.289   5.522   7.435  0.1294  2.2794 -1.0232
18723THY    CA155374   1.241   5.628   7.574  0.5466 -0.9623  0.2227
18723THY    CA255375   1.258   5.744   7.648 -0.5405  0.1831 -0.2853
18723THY    CP155376   1.371   5.835   7.614  0.0742 -0.6138 -0.3551
18723THY    HP155377   1.454   5.767   7.593 -0.0989  0.4573 -0.9138
18723THY    CP255378   1.432   5.914   7.730  0.5069 -0.3331 -0.4028
18723THY    HP255379   1.375   6.003   7.759  1.4005 -0.3001  0.1722
18723THY    HP355380   1.534   5.954   7.719  0.8728  1.8196 -0.6025
18723THY    HP455381   1.436   5.843   7.814  0.2589 -0.6389 -0.7843
18723THY    CP355382   1.331   5.935   7.511 -0.2948 -0.1954 -0.1834
18723THY    HP555383   1.412   6.004   7.488  1.0380  0.8233 -1.3532
18723THY    HP655384   1.249   5.995   7.553  2.7170  1.2893  3.2087
18723THY    HP755385   1.303   5.887   7.416  0.4194  0.5679 -2.2307
18723THY    CA355386   1.159   5.769   7.741 -0.0315 -0.7978 -0.2997
18723THY    HA355387   1.165   5.852   7.812 -0.5952  0.6945 -1.4816
18723THY    CA455388   1.053   5.678   7.770  1.0500  0.4400 -0.6927
18723THY    HA455389   0.995   5.694   7.860 -0.5304 -0.8274  1.1827
18723THY    CA555390   1.050   5.559   7.705  0.2081  0.0522 -0.1026
18723THY    CM155391   0.931   5.476   7.728 -1.1452 -0.4435  0.2246
18723THY    HM155392   0.906   5.492   7.834 -0.5661 -0.1694 -0.6406
18723THY    HM255393   0.948   5.371   7.704  2.0172 -1.6621  0.8995
18723THY    HM355394   0.849   5.518   7.669 -2.9210  1.2598 -0.7245
18723THY    CA655395   1.132   5.540   7.594 -0.0569 -0.0809 -0.2664
18723THY    HA655396   1.129   5.440   7.552  0.9933 -1.0990  0.1075
18724THY      O55397   5.035   3.094   7.470  0.2480  0.2269 -0.0683
18724THY     HO55398   5.108   3.133   7.420  0.3651  1.1322  0.9224
18724THY    CA155399   5.003   2.987   7.399 -0.1274  0.5269 -0.0320
18724THY    CA255400   4.872   2.928   7.424 -0.2800  0.3355 -0.0001
18724THY    CP155401   4.776   2.969   7.537 -0.7415 -0.4457  0.6411
18724THY    HP155402   4.827   3.034   7.609  0.3047 -1.4518  0.9754
18724THY    CP255403   4.736   2.853   7.625  0.2833  0.4696 -0.5249
18724THY    HP255404   4.669   2.888   7.706 -0.2364 -0.2992  0.3171
18724THY    HP355405   4.829   2.805   7.655  1.2498  0.2077  1.1291
18724THY    HP455406   4.680   2.781   7.565 -0.2754  2.4009 -1.8028
18724THY    CP355407   4.660   3.045   7.473 -0.5639  0.2743  0.2088
18724THY    HP555408   4.616   2.998   7.384 -2.2996 -0.0415  2.2488
18724THY    HP655409   4.696   3.146   7.448  0.8034  0.7493 -0.1328
18724THY    HP755410   4.576   3.057   7.542 -1.2554 -0.7211  1.4547
18724THY    CA355411   4.835   2.831   7.329  0.1145  0.1047 -0.2000
18724THY    HA355412   4.740   2.777   7.336  0.2596 -0.8140 -0.5924
18724THY    CA455413   4.914   2.787   7.222 -0.6126  0.5707 -0.4077
18724THY    HA455414   4.876   2.709   7.156 -0.5430  0.7431 -0.5875
18724THY    CA555415   5.040   2.843   7.207 -0.7291  0.0579 -0.6340
18724THY    CM155416   5.127   2.826   7.086 -0.2173  0.0914 -0.2180
18724THY    HM155417   5.219   2.772   7.112  1.9525 -1.6973  2.3204
18724THY    HM255418   5.164   2.925   7.057  1.1895 -0.5221 -0.8935
18724THY    HM355419   5.076   2.775   7.003  0.3613 -0.1001 -0.4941
18724THY    CA655420   5.083   2.940   7.294  0.1071  0.2201 -0.2758
18724THY    HA655421   5.181   2.980   7.269  1.5066 -0.3283 -3.6664
18725THY      O55422   4.074   0.853   3.788 -0.1551 -0.1276  0.5679
18725THY     HO55423   4.078   0.862   3.691 -0.6707 -0.2352 -0.2614
18725THY    CA155424   3.936   0.879   3.805  0.1090  0.0254 -0.4951
18725THY    CA255425   3.867   0.852   3.928 -0.4218  0.8049  0.5168
18725THY    CP155426   3.944   0.777   4.030  0.2100  0.0252 -0.4435
18725THY    HP155427   4.049   0.773   4.000 -0.6002 -3.1465 -0.3292
18725THY    CP255428   3.904   0.633   4.033  0.3296  0.7787  0.3752
18725THY    HP255429   3.981   0.571   4.082 -0.5938  0.6168 -0.9446
18725THY    HP355430   3.899   0.598   3.929  2.6409  1.0354 -0.9662
18725THY    HP455431   3.812   0.608   4.087  0.6121  0.7029 -0.9180
18725THY    CP355432   3.933   0.830   4.170  0.3128  0.2058  0.1368
18725THY    HP555433   3.981   0.770   4.249  0.4591  0.5749  0.7304
18725THY    HP655434   3.828   0.837   4.201  0.3615  1.3693 -2.8867
18725THY    HP755435   3.984   0.927   4.171  1.9298 -1.9436 -0.6166
18725THY    CA355436   3.744   0.904   3.943  0.5245  0.2866 -0.5401
18725THY    HA355437   3.690   0.895   4.037  1.5054  0.9696  0.4723
18725THY    CA455438   3.684   0.959   3.834  0.4844 -0.4950 -0.4570
18725THY    HA455439   3.584   1.001   3.843  0.2917  0.2156 -1.0429
18725THY    CA555440   3.741   0.973   3.709  0.1392  0.0481 -0.7581
18725THY    CM155441   3.674   1.049   3.600  0.2997  0.3502  0.4091
18725THY    HM155442   3.672   0.992   3.506 -0.1307  0.2858  0.5304
18725THY    HM255443   3.725   1.140   3.566 -0.8786  0.8759  1.2930
18725THY    HM355444   3.573   1.079   3.630  0.4083  2.0333 -0.7415
18725THY    CA655445   3.879   0.942   3.699  0.9820  0.0699  0.7187
18725THY    HA655446   3.939   0.963   3.610  1.0749 -0.3656 -1.1893
18726THY      O55447   7.384   8.561   2.626 -0.1359 -0.0382 -0.1829
18726THY     HO55448   7.466   8.610   2.644 -1.1184  1.5400  1.0034
18726THY    CA155449   7.393   8.528   2.501 -0.1595  0.1592 -0.0312
18726THY    CA255450   7.330   8.412   2.453 -0.2466 -0.4403  0.3433
18726THY    CP155451   7.261   8.314   2.554  0.3830 -0.4247  0.3047
18726THY    HP155452   7.239   8.353   2.654  0.7104 -0.0720 -0.3780
18726THY    CP255453   7.357   8.204   2.585 -0.1955 -0.1618  0.4680
18726THY    HP255454   7.318   8.149   2.671 -0.1323  0.3385  1.1870
18726THY    HP355455   7.459   8.240   2.604  0.3536 -1.1311 -0.5276
18726THY    HP455456   7.362   8.132   2.503 -0.9291 -0.6895  1.0034
18726THY    CP355457   7.122   8.277   2.524  0.4262  0.5460  0.2842
18726THY    HP555458   7.107   8.273   2.415 -0.2638  0.6402  0.1151
18726THY    HP655459   7.054   8.359   2.552  1.4444  0.4937  1.1644
18726THY    HP755460   7.088   8.190   2.581  0.6394  2.3418  1.3203
18726THY    CA355461   7.345   8.375   2.319 -0.7052 -0.3828  0.5911
18726THY    HA355462   7.295   8.285   2.285 -1.8087  1.9723  0.2443
18726THY    CA455463   7.425   8.456   2.233 -0.2042 -0.3097 -0.1584
18726THY    HA455464   7.439   8.422   2.131 -1.3447 -0.2531 -0.8277
18726THY    CA555465   7.486   8.576   2.280  0.1045 -0.4728  0.4996
18726THY    CM155466   7.574   8.656   2.187  0.0770 -0.3994 -0.4079
18726THY    HM155467   7.520   8.741   2.144  2.8730 -1.3727  0.9911
18726THY    HM255468   7.608   8.591   2.105 -0.0638 -1.7904  1.1903
18726THY    HM355469   7.659   8.696   2.242 -0.0550  0.4587 -1.2658
18726THY    CA655470   7.472   8.610   2.416 -0.5530  0.3951 -0.4750
18726THY    HA655471   7.506   8.708   2.448 -0.1739  0.1844 -0.5385
18727THY      O55472   8.164   2.463   7.010 -0.6870 -0.0746 -0.5074
18727THY     HO55473   8.084   2.460   6.955 -1.4039  0.9605 -2.4855
18727THY    CA155474   8.229   2.591   6.988  0.4536 -0.2588  0.4345
18727THY    CA255475   8.372   2.600   6.981 -0.0830  0.5498 -0.4054
18727THY    CP155476   8.476   2.492   6.994 -0.1590 -0.7417  0.4623
18727THY    HP155477   8.435   2.412   7.057 -0.6257  0.5032  1.6323
18727THY    CP255478   8.613   2.532   7.058 -0.1555  0.8960 -0.4366
18727THY    HP255479   8.678   2.572   6.980  0.8668  0.9147 -1.9961
18727THY    HP355480   8.665   2.442   7.092  1.2092 -3.2544 -1.4288
18727THY    HP455481   8.599   2.616   7.128 -0.8410 -0.9327  1.0452
18727THY    CP355482   8.491   2.429   6.857 -0.5608 -0.6060  0.0621
18727THY    HP555483   8.508   2.505   6.779  2.0752  3.0756  3.7159
18727THY    HP655484   8.396   2.378   6.840  0.1435 -0.9473 -1.1875
18727THY    HP755485   8.578   2.364   6.845 -0.8533 -0.8277 -0.2925
18727THY    CA355486   8.422   2.734   6.942  0.0744  0.2448  0.0575
18727THY    HA355487   8.527   2.750   6.920  0.1325 -2.2649 -2.8862
18727THY    CA455488   8.340   2.840   6.941  0.7016  0.0681  0.3111
18727THY    HA455489   8.382   2.939   6.920 -0.5916  1.2655  1.1483
18727THY    CA555490   8.197   2.829   6.970  0.4162 -0.0699 -0.3781
18727THY    CM155491   8.105   2.938   6.977 -0.1855 -0.5198  0.4768
18727THY    HM155492   8.047   2.928   7.070 -0.9516 -0.9915  0.4417
18727THY    HM255493   8.032   2.943   6.896 -0.8267  0.0850  1.3742
18727THY    HM355494   8.149   3.038   6.974 -0.4188 -0.0832  0.5960
18727THY    CA655495   8.145   2.702   6.986  0.2589 -0.0572 -0.0235
18727THY    HA655496   8.039   2.682   6.988 -0.2552  1.6058  2.4598
18728THY      O55497   7.178   2.475   7.098 -0.0362 -0.5864  0.3309
18728THY     HO55498   7.182   2.418   7.019 -1.7581  0.3232 -1.1715
18728THY    CA155499   7.213   2.599   7.044 -0.3662 -0.2208 -0.1248
18728THY    CA255500   7.267   2.701   7.128  0.4222  0.0479 -0.3288
18728THY    CP155501   7.284   2.670   7.281 -0.2339  0.2394  0.0570
18728THY    HP155502   7.198   2.613   7.319 -1.5702  0.3400  2.0200
18728THY    CP255503   7.264   2.807   7.351 -0.5371 -0.7298  0.6396
18728THY    HP255504   7.231   2.790   7.454  0.7407 -0.3155  0.5426
18728THY    HP355505   7.186   2.871   7.310 -1.9883 -1.6525 -1.6161
18728THY    HP455506   7.363   2.853   7.363  1.3242  0.4250 -3.2331
18728THY    CP355507   7.421   2.606   7.320  0.4685 -1.0783  0.0398
18728THY    HP555508   7.454   2.642   7.418  1.5929 -2.0224  1.6515
18728THY    HP655509   7.490   2.627   7.238 -0.6996 -1.7921  1.2596
18728THY    HP755510   7.394   2.499   7.318  1.6680 -2.4455 -0.2624
18728THY    CA355511   7.305   2.825   7.068  1.0129  0.2655 -0.8974
18728THY    HA355512   7.367   2.900   7.116 -0.6949 -0.8815  1.4026
18728THY    CA455513   7.278   2.852   6.934  0.6734  0.0615 -0.0620
18728THY    HA455514   7.293   2.948   6.886 -1.4968 -0.4586  0.0845
18728THY    CA555515   7.222   2.753   6.857 -0.2831 -0.4076 -0.1342
18728THY    CM155516   7.194   2.777   6.716 -0.1949  0.1737 -0.3148
18728THY    HM155517   7.119   2.858   6.712 -1.1587  0.8462 -1.1433
18728THY    HM255518   7.148   2.689   6.670 -1.2480  2.9296 -1.3120
18728THY    HM355519   7.290   2.790   6.666  0.9772  2.2375 -0.6449
18728THY    CA655520   7.193   2.629   6.913  0.2761 -0.1891 -0.0392
18728THY    HA655521   7.148   2.547   6.856  1.8293 -2.5269  0.6265
18729THY      O55522   1.430   3.993   2.525  0.0121  0.1017  0.5562
18729THY     HO55523   1.371   4.042   2.583 -1.5209 -1.5561  0.7858
18729THY    CA155524   1.340   3.931   2.441  0.0977  0.4886 -0.2709
18729THY    CA255525   1.374   3.813   2.369  0.0951 -0.7076 -0.0648
18729THY    CP155526   1.518   3.761   2.377  0.2638 -0.3104  0.0565
18729THY    HP155527   1.575   3.828   2.442  0.5605 -1.1654  0.6454
18729THY    CP255528   1.596   3.767   2.248  0.1597  0.1041  0.6072
18729THY    HP255529   1.613   3.872   2.222 -0.6347 -1.2399  0.4316
18729THY    HP355530   1.538   3.712   2.173 -0.2422  1.9804 -1.6996
18729THY    HP455531   1.696   3.721   2.255  0.0736 -2.6564 -0.1915
18729THY    CP355532   1.525   3.611   2.431  0.1134  0.6211  0.6286
18729THY    HP555533   1.617   3.584   2.484  0.0748  0.2542 -0.2549
18729THY    HP655534   1.512   3.540   2.349 -3.3087  0.7160  0.9705
18729THY    HP755535   1.441   3.586   2.497 -0.9883 -1.6680 -2.3288
18729THY    CA355536   1.275   3.744   2.297 -0.0760 -0.3543 -0.2401
18729THY    HA355537   1.291   3.651   2.243 -2.0350 -1.4884  0.0151
18729THY    CA455538   1.141   3.791   2.299 -0.4705  1.1300 -0.3786
18729THY    HA455539   1.061   3.737   2.249  1.3799 -0.9863 -1.2810
18729THY    CA555540   1.108   3.903   2.373  0.0531  0.1567  0.3796
18729THY    CM155541   0.964   3.951   2.389  1.0041  0.1389 -0.4621
18729THY    HM155542   0.924   3.944   2.491 -0.1528 -0.1653  1.0293
18729THY    HM255543   0.897   3.903   2.317  0.8330 -0.4626  0.6430
18729THY    HM355544   0.971   4.057   2.364  1.4650  0.6965 -0.3544
18729THY    CA655545   1.208   3.974   2.443  0.7590 -0.8675 -0.5811
18729THY    HA655546   1.173   4.055   2.507  4.9557 -0.9017  1.5088
18730THY      O55547   3.355   3.687   5.213  0.3151 -0.7382  0.5171
18730THY     HO55548   3.345   3.647   5.125  1.7794 -0.7833  0.2063
18730THY    CA155549   3.306   3.614   5.318  0.2371 -0.4337  0.1482
18730THY    CA255550   3.224   3.673   5.423  0.8075 -0.0583  0.0486
18730THY    CP155551   3.195   3.826   5.414  0.3062 -0.2722  0.2579
18730THY    HP155552   3.224   3.867   5.317 -0.9307 -1.1059 -0.7637
18730THY    CP255553   3.274   3.898   5.519  0.2892  0.4589  0.5557
18730THY    HP255554   3.373   3.896   5.471 -0.6628 -1.6309 -2.2036
18730THY    HP355555   3.274   3.856   5.620 -0.6799  0.1952 -0.1023
18730THY    HP455556   3.239   4.001   5.533  0.0317  2.0221  0.2735
18730THY    CP355557   3.049   3.849   5.429 -0.2061  0.4561 -0.2837
18730THY    HP555558   3.019   3.836   5.534 -0.2205  0.1764 -2.9198
18730THY    HP655559   2.989   3.784   5.364  0.0161  0.9273 -0.9657
18730THY    HP755560   3.025   3.955   5.410 -1.1746  2.2776 -0.1267
18730THY    CA355561   3.177   3.587   5.523  0.1221 -0.0878  0.3208
18730THY    HA355562   3.112   3.632   5.597  0.7423  0.7287 -0.1079
18730THY    CA455563   3.217   3.451   5.526 -0.6740 -0.3883 -0.0997
18730THY    HA455564   3.187   3.389   5.610  0.4325  0.6724  0.7661
18730THY    CA555565   3.287   3.396   5.420  0.4146 -0.4536 -0.2557
18730THY    CM155566   3.320   3.256   5.418 -0.1240 -0.3797 -0.3760
18730THY    HM155567   3.386   3.232   5.501 -1.8127  0.2689 -3.2021
18730THY    HM255568   3.379   3.235   5.328 -1.8783 -2.0657  1.3557
18730THY    HM355569   3.232   3.191   5.413 -0.0869 -1.3819 -0.3701
18730THY    CA655570   3.337   3.478   5.318 -0.6650 -0.0795  0.1633
18730THY    HA655571   3.399   3.443   5.236 -0.6460  0.1903 -0.4507
18731THY      O55572   9.033   9.278   7.155  0.2238  0.1633  0.1101
18731THY     HO55573   9.053   9.328   7.074  0.9592 -0.3904 -1.0317
18731THY    CA155574   9.062   9.144   7.142 -0.1432 -0.3494 -0.4901
18731THY    CA255575   9.026   9.046   7.242 -0.4310 -0.5586  0.2144
18731THY    CP155576   8.974   9.094   7.378 -0.0952  0.1779  0.5749
18731THY    HP155577   8.973   9.203   7.384 -1.2408 -0.2719  0.6070
18731THY    CP255578   9.052   9.031   7.500 -0.4733  0.1722 -0.0976
18731THY    HP255579   9.156   9.063   7.490 -0.5174  0.1874  0.0506
18731THY    HP355580   9.032   8.923   7.500 -1.5918 -0.5207  0.0927
18731THY    HP455581   9.008   9.059   7.597 -0.7135  0.2005 -0.5674
18731THY    CP355582   8.827   9.056   7.393  0.5973  0.2650 -0.2298
18731THY    HP555583   8.815   8.951   7.366  1.9619 -2.4627  0.2283
18731THY    HP655584   8.766   9.121   7.329 -0.6795  1.1283 -0.5268
18731THY    HP755585   8.787   9.073   7.494 -0.1371 -0.3663  2.2143
18731THY    CA355586   9.057   8.908   7.224  0.2074  0.1481  0.0244
18731THY    HA355587   9.041   8.835   7.302 -1.0811 -0.3099 -0.2158
18731THY    CA455588   9.113   8.872   7.104 -0.7455  0.1177 -0.1816
18731THY    HA455589   9.149   8.771   7.085 -0.7742  0.9682 -0.3574
18731THY    CA555590   9.132   8.958   7.002 -0.4823 -0.2645  0.5009
18731THY    CM155591   9.210   8.917   6.878 -0.4605 -0.7201 -0.4219
18731THY    HM155592   9.228   8.995   6.803  1.2563  1.2906  1.2362
18731THY    HM255593   9.182   8.825   6.824 -3.0344 -1.0960  0.4786
18731THY    HM355594   9.313   8.902   6.910 -0.7636  0.7247  0.3814
18731THY    CA655595   9.116   9.101   7.019  0.7102 -0.4391 -0.5358
18731THY    HA655596   9.155   9.166   6.942  0.7742  2.1729  2.8068
18732THY      O55597   6.619   4.481   7.321  0.8578 -0.1170  0.4262
18732THY     HO55598   6.663   4.422   7.258 -0.4710 -0.7907  0.1038
18732THY    CA155599   6.484   4.467   7.292 -0.2656  0.5584 -0.2418
18732THY    CA255600   6.389   4.481   7.390 -0.2316  0.1446 -0.5611
18732THY    CP155601   6.431   4.496   7.535  0.4700 -0.1372  0.7276
18732THY    HP155602   6.536   4.529   7.537  0.7526 -3.0491  0.2741
18732THY    CP255603   6.430   4.359   7.610  0.7368 -0.0315  0.0865
18732THY    HP255604   6.505   4.294   7.563 -0.7540 -1.2354 -0.8614
18732THY    HP355605   6.332   4.309   7.611  0.4248  1.3458  0.6897
18732THY    HP455606   6.459   4.374   7.714 -0.3908 -0.0882  3.5545
18732THY    CP355607   6.340   4.585   7.617  0.7603  0.0359 -1.1053
18732THY    HP555608   6.390   4.615   7.710  3.4894 -1.4952 -0.5991
18732THY    HP655609   6.249   4.535   7.653  1.8167  0.6335 -2.6897
18732THY    HP755610   6.298   4.664   7.554  0.5833  1.4173 -0.0533
18732THY    CA355611   6.251   4.475   7.351 -0.5065  0.5872 -0.7256
18732THY    HA355612   6.176   4.496   7.426 -0.5346  0.6005 -0.8750
18732THY    CA455613   6.216   4.467   7.218  0.6218  0.0016 -0.1591
18732THY    HA455614   6.113   4.446   7.190 -0.5810  2.6559  1.6758
18732THY    CA555615   6.313   4.450   7.122 -1.6919  0.4982  1.1951
18732THY    CM155616   6.268   4.417   6.981 -0.1896  0.0701  0.3197
18732THY    HM155617   6.240   4.507   6.924  2.7162 -0.9431  0.6852
18732THY    HM255618   6.187   4.344   6.995 -2.1458  1.2396  2.5838
18732THY    HM355619   6.344   4.366   6.921 -1.6779 -2.0733  0.4722
18732THY    CA655620   6.448   4.443   7.156 -0.1792  0.4642 -0.4530
18732THY    HA655621   6.518   4.418   7.077 -0.2128 -0.1869  1.3443
18733THY      O55622   5.294   8.913   4.726 -0.4917 -0.0640  0.0013
18733THY     HO55623   5.370   8.957   4.685 -0.6644  1.3326  1.7415
18733THY    CA155624   5.199   8.946   4.642 -0.3692 -0.2972 -0.1152
18733THY    CA255625   5.060   8.967   4.676 -0.1132 -0.3991 -0.5332
18733THY    CP155626   5.019   8.963   4.828  0.4396 -0.3722  0.4787
18733THY    HP155627   5.102   8.948   4.898 -0.5492  0.6603 -0.4170
18733THY    CP255628   4.932   8.838   4.835  0.1981 -0.6466  0.3450
18733THY    HP255629   4.879   8.825   4.930 -1.3183 -1.1818  2.2277
18733THY    HP355630   4.990   8.747   4.818 -1.4202  1.6396 -1.2346
18733THY    HP455631   4.861   8.831   4.751  1.2401 -1.4942 -0.4639
18733THY    CP355632   4.938   9.081   4.879  0.2449 -0.0480 -0.2915
18733THY    HP555633   4.839   9.081   4.831 -0.1055  0.6457 -1.3224
18733THY    HP655634   4.993   9.172   4.853 -2.4112  1.6857  1.9914
18733THY    HP755635   4.927   9.071   4.987  2.4911  0.2308 -0.2736
18733THY    CA355636   4.971   8.994   4.575 -0.8898  0.3090  0.0608
18733THY    HA355637   4.866   9.013   4.596 -0.5274  2.4465 -0.0667
18733THY    CA455638   5.025   9.002   4.441  0.3015 -0.7350  0.0102
18733THY    HA455639   4.964   9.029   4.355  0.1530 -0.6507 -0.0541
18733THY    CA555640   5.159   8.981   4.414  0.1855  0.2819 -0.9220
18733THY    CM155641   5.212   8.998   4.278 -0.0196  0.1731 -0.2178
18733THY    HM155642   5.320   8.992   4.266  0.0140 -0.8180  1.5991
18733THY    HM255643   5.184   9.094   4.233  2.2047  2.0269  1.4189
18733THY    HM355644   5.161   8.921   4.219  0.3202 -0.0358 -0.2818
18733THY    CA655645   5.243   8.952   4.517  0.4098 -0.1839 -0.0091
18733THY    HA655646   5.343   8.924   4.485  0.2431 -3.5015  2.5795
18734THY      O55647   7.300   3.310   5.142 -0.4416 -0.2296 -0.7785
18734THY     HO55648   7.223   3.340   5.193 -0.6745 -0.9144 -0.1953
18734THY    CA155649   7.243   3.228   5.050 -0.0460  0.3487  0.0242
18734THY    CA255650   7.304   3.205   4.924  0.5228 -0.0605  0.5675
18734THY    CP155651   7.434   3.277   4.891 -0.4212 -0.8319 -0.2361
18734THY    HP155652   7.500   3.282   4.979 -0.2416 -0.9832  0.0670
18734THY    CP255653   7.397   3.414   4.839 -0.1195  0.0639 -0.4582
18734THY    HP255654   7.308   3.424   4.777  0.1256 -0.0563  1.2445
18734THY    HP355655   7.482   3.462   4.790  0.0213  0.5894 -0.1579
18734THY    HP455656   7.380   3.483   4.922  1.5766 -0.2553  0.3849
18734THY    CP355657   7.515   3.200   4.785 -0.6217  0.5388 -0.7624
18734THY    HP555658   7.523   3.092   4.800  1.6572  1.7781 -0.4842
18734THY    HP655659   7.620   3.232   4.790 -0.4670  0.5083 -1.2707
18734THY    HP755660   7.482   3.229   4.685 -2.3752  1.4499  0.5426
18734THY    CA355661   7.228   3.136   4.828  0.2553 -0.2526  0.3759
18734THY    HA355662   7.270   3.133   4.728  1.5232  0.2747 -0.0911
18734THY    CA455663   7.095   3.084   4.859 -0.2220 -0.1621 -0.2840
18734THY    HA455664   7.040   3.030   4.782  2.8435 -1.6125 -1.6024
18734THY    CA555665   7.046   3.104   4.989  0.3327  0.2838 -0.6874
18734THY    CM155666   6.918   3.033   5.028  1.1107  0.0144  0.3967
18734THY    HM155667   6.939   2.952   5.099 -0.6188  1.1589  0.9021
18734THY    HM255668   6.850   2.987   4.955 -0.0197  0.0429  1.9326
18734THY    HM355669   6.855   3.104   5.082 -0.1416  0.4370 -0.9703
18734THY    CA655670   7.113   3.185   5.075  0.5298 -0.1661 -0.7277
18734THY    HA655671   7.074   3.193   5.175  0.1401 -0.4593  1.5276
18735THY      O55672   6.317   6.550   7.669  0.2737  0.1033  0.4677
18735THY     HO55673   6.288   6.465   7.631 -1.1689  0.2018  0.8882
18735THY    CA155674   6.436   6.513   7.714 -0.0424  0.1599  0.2338
18735THY    CA255675   6.528   6.607   7.767 -0.2844 -0.5807  0.1021
18735THY    CP155676   6.493   6.755   7.788  0.1057 -0.2858  0.7197
18735THY    HP155677   6.386   6.771   7.768 -0.1982 -0.2551 -1.0708
18735THY    CP255678   6.567   6.837   7.683 -0.2364  1.2803  0.3399
18735THY    HP255679   6.669   6.805   7.662 -0.3691  1.2844 -0.0881
18735THY    HP355680   6.567   6.945   7.705 -0.8963  0.4349  0.5269
18735THY    HP455681   6.521   6.828   7.584  0.5897  0.7452  1.6363
18735THY    CP355682   6.533   6.805   7.927 -0.3845 -0.7776 -0.3502
18735THY    HP555683   6.640   6.798   7.946 -0.4301 -0.4272 -0.1076
18735THY    HP655684   6.470   6.749   7.998  2.4154  2.3822  0.2157
18735THY    HP755685   6.509   6.911   7.933 -3.6280  0.6940 -1.0403
18735THY    CA355686   6.661   6.567   7.792  0.2500 -0.2462  0.2587
18735THY    HA355687   6.737   6.639   7.822  0.1566 -0.0312  0.2678
18735THY    CA455688   6.697   6.437   7.778 -0.1137  0.1331  0.1293
18735THY    HA455689   6.801   6.406   7.783 -0.3535 -0.0458 -0.7096
18735THY    CA555690   6.594   6.338   7.740 -0.4366 -0.1041 -0.5588
18735THY    CM155691   6.631   6.194   7.747  0.2669  0.6145 -0.7682
18735THY    HM155692   6.653   6.170   7.851 -0.5247  1.2925  1.2263
18735THY    HM255693   6.720   6.192   7.683 -0.9469 -1.4156  2.3077
18735THY    HM355694   6.566   6.129   7.688  2.0051 -2.3223 -0.0338
18735THY    CA655695   6.467   6.378   7.711 -0.1640  0.2186 -0.4141
18735THY    HA655696   6.398   6.303   7.674  0.7476 -2.3479 -0.0944
18736THY      O55697   5.822   0.836   6.334  0.5587  0.0199  0.3819
18736THY     HO55698   5.816   0.822   6.238  0.1655  0.1282 -0.2824
18736THY    CA155699   5.758   0.953   6.366 -0.2946  0.0777 -0.0251
18736THY    CA255700   5.771   1.011   6.496 -0.5564  0.1107  0.6492
18736THY    CP155701   5.862   0.955   6.608 -0.4918  0.8016  0.4804
18736THY    HP155702   5.907   0.859   6.579  3.0424  0.2640  2.1351
18736THY    CP255703   5.785   0.927   6.730  0.0372 -0.3880 -0.6572
18736THY    HP255704   5.723   1.009   6.767  0.8261  0.1816 -0.3005
18736THY    HP355705   5.851   0.898   6.813  0.7624 -0.8027 -0.2229
18736THY    HP455706   5.714   0.847   6.708  0.5393 -0.3733 -1.1138
18736THY    CP355707   5.974   1.046   6.646  0.4327 -0.0975  0.1336
18736THY    HP555708   5.939   1.143   6.684 -2.0457  0.0508 -0.7539
18736THY    HP655709   6.039   1.065   6.559 -2.4968 -2.3336  0.6281
18736THY    HP755710   6.035   1.000   6.724  0.7804 -0.7254 -0.4897
18736THY    CA355711   5.701   1.128   6.529  0.1749  0.5618 -0.2823
18736THY    HA355712   5.730   1.171   6.625  0.0321  0.2310  0.5837
18736THY    CA455713   5.612   1.186   6.433 -0.9854 -1.2362 -0.4373
18736THY    HA455714   5.557   1.277   6.452 -0.2008  0.5935 -0.3129
18736THY    CA555715   5.605   1.126   6.305  0.3813  0.2378  0.1760
18736THY    CM155716   5.512   1.185   6.199 -0.2150 -0.1897  0.6164
18736THY    HM155717   5.510   1.295   6.198  0.5169 -1.8662  0.6525
18736THY    HM255718   5.412   1.149   6.227  0.2763  0.5863 -0.1801
18736THY    HM355719   5.527   1.155   6.094 -0.3477  0.6037 -2.6045
18736THY    CA655720   5.681   1.013   6.270  0.2489  0.2556 -0.9264
18736THY    HA655721   5.667   0.966   6.173 -3.3066  1.5914 -3.0758
18737THY      O55722   7.390   0.232   5.529  0.0901  0.0562  0.3106
18737THY     HO55723   7.326   0.164   5.555 -0.3260 -0.3696  0.5422
18737THY    CA155724   7.323   0.332   5.467 -0.6184  0.0365 -0.7177
18737THY    CA255725   7.336   0.469   5.512 -0.1507 -0.0637 -0.7799
18737THY    CP155726   7.452   0.503   5.607 -0.2001 -0.2429  0.1294
18737THY    HP155727   7.457   0.428   5.686 -2.2357 -0.8208 -0.6884
18737THY    CP255728   7.431   0.633   5.683  0.6415  0.4007 -0.3499
18737THY    HP255729   7.331   0.648   5.726 -0.7236 -1.9993 -1.9690
18737THY    HP355730   7.437   0.715   5.611 -1.2934 -0.6183 -1.0463
18737THY    HP455731   7.506   0.647   5.762  0.6432  0.2060  0.8235
18737THY    CP355732   7.586   0.494   5.534 -0.7537 -0.2816 -0.1775
18737THY    HP555733   7.665   0.531   5.602 -3.4249  1.7753  2.2026
18737THY    HP655734   7.578   0.560   5.447 -4.3856  0.7104  0.8992
18737THY    HP755735   7.604   0.392   5.497  0.5425  1.6293 -0.7022
18737THY    CA355736   7.254   0.566   5.443 -0.1228  0.0223  0.6083
18737THY    HA355737   7.259   0.672   5.466  0.7336  0.2465  0.5264
18737THY    CA455738   7.185   0.528   5.330 -0.0393  0.3672  0.6572
18737THY    HA455739   7.145   0.605   5.264 -2.4679  2.8693  1.7349
18737THY    CA555740   7.183   0.396   5.280  0.8074  0.6500  0.5277
18737THY    CM155741   7.106   0.369   5.152  0.2289 -0.9686 -0.3957
18737THY    HM155742   7.168   0.344   5.065 -0.6072 -1.5699 -0.4331
18737THY    HM255743   7.037   0.452   5.129 -1.2604  0.5230 -1.1457
18737THY    HM355744   7.037   0.285   5.166  1.9752  1.6806 -1.5152
18737THY    CA655745   7.249   0.298   5.351 -0.0598 -1.1255 -0.5846
18737THY    HA655746   7.236   0.195   5.320  1.1212 -0.6888 -0.8811
18738THY      O55747   2.325   6.091   4.433  0.3994  0.6865  0.0515
18738THY     HO55748   2.345   6.011   4.484  0.3444 -2.0426 -1.8668
18738THY    CA155749   2.342   6.041   4.305 -0.0674 -0.1479  0.0495
18738THY    CA255750   2.389   6.125   4.200  0.0209 -0.2906 -0.2501
18738THY    CP155751   2.398   6.275   4.215 -0.7007  1.1450 -0.6261
18738THY    HP155752   2.341   6.303   4.304 -2.9192 -0.1500 -0.8156
18738THY    CP255753   2.323   6.346   4.107 -0.0340 -0.0664 -0.4845
18738THY    HP255754   2.322   6.449   4.145  0.9812 -1.1507 -0.0541
18738THY    HP355755   2.226   6.299   4.089 -0.2206 -0.9006  0.1851
18738THY    HP455756   2.373   6.341   4.010 -0.5450 -0.2744 -1.7767
18738THY    CP355757   2.537   6.335   4.221 -0.0136 -0.5170 -0.2714
18738THY    HP555758   2.540   6.444   4.215 -2.5783 -0.0086 -0.1073
18738THY    HP655759   2.589   6.296   4.133  0.2852  0.3235 -1.8571
18738THY    HP755760   2.591   6.313   4.314  3.0398 -1.7508  1.4722
18738THY    CA355761   2.422   6.061   4.077  0.3952  0.1479 -0.5567
18738THY    HA355762   2.473   6.117   3.999  0.6658  0.1628 -0.7810
18738THY    CA455763   2.429   5.923   4.065  0.8896  0.3899 -0.5339
18738THY    HA455764   2.482   5.870   3.986 -0.2960 -0.9966  0.3043
18738THY    CA555765   2.376   5.844   4.167  0.3553  0.0312 -0.8044
18738THY    CM155766   2.384   5.695   4.159  0.6932 -0.3850 -0.6429
18738THY    HM155767   2.442   5.667   4.070 -0.7252 -1.5579  0.0280
18738THY    HM255768   2.285   5.647   4.157  0.2368  1.0202  0.1719
18738THY    HM355769   2.438   5.651   4.244 -2.5537  3.0060  1.3836
18738THY    CA655770   2.331   5.904   4.285 -0.2545 -0.2593  0.6841
18738THY    HA655771   2.297   5.837   4.364 -0.6790  0.5243  1.7927
18739THY      O55772   6.493   4.538   6.335  0.4911 -0.1723  0.1851
18739THY     HO55773   6.581   4.532   6.295  1.0270  0.8122  1.0309
18739THY    CA155774   6.467   4.418   6.390  0.1819 -0.1470 -0.1789
18739THY    CA255775   6.383   4.404   6.499 -0.6150 -0.5877  0.0579
18739THY    CP155776   6.297   4.528   6.535 -0.2704 -0.7872  0.1814
18739THY    HP155777   6.261   4.585   6.449 -0.2531  0.3336  1.9675
18739THY    CP255778   6.367   4.620   6.633 -0.4792  0.8991 -0.4500
18739THY    HP255779   6.383   4.565   6.727  0.4986  0.2562 -1.3121
18739THY    HP355780   6.306   4.711   6.630  0.8926 -1.7500  0.5048
18739THY    HP455781   6.468   4.643   6.597 -0.2320  1.0377 -1.2807
18739THY    CP355782   6.167   4.484   6.601  0.2311 -0.6037 -0.3151
18739THY    HP555783   6.100   4.568   6.621  0.4608 -1.0097 -0.0261
18739THY    HP655784   6.182   4.431   6.695  0.0208 -0.6071 -0.3823
18739THY    HP755785   6.120   4.419   6.526  3.5879 -2.4182 -0.9157
18739THY    CA355786   6.368   4.276   6.566 -0.4843 -0.5326  0.1673
18739THY    HA355787   6.300   4.259   6.649 -0.3996 -0.7582 -1.3213
18739THY    CA455788   6.451   4.176   6.522 -0.3324 -1.0424 -0.2548
18739THY    HA455789   6.439   4.080   6.573  0.0707 -0.8339 -0.1977
18739THY    CA555790   6.532   4.189   6.411  0.1139  0.6335  0.8602
18739THY    CM155791   6.624   4.076   6.372 -0.0733 -0.5504  0.4593
18739THY    HM155792   6.570   3.982   6.357  0.7477  0.9895 -0.2937
18739THY    HM255793   6.705   4.061   6.444 -0.5991 -0.0700 -0.1032
18739THY    HM355794   6.674   4.092   6.276 -0.0047 -1.1425 -2.7399
18739THY    CA655795   6.544   4.314   6.345  0.0712 -0.2974  0.7069
18739THY    HA655796   6.614   4.326   6.263  1.1895  0.6766  1.0270
18740THY      O55797   5.135   0.504   1.870  0.5886  0.2611 -1.0680
18740THY     HO55798   5.092   0.449   1.803  1.0243  0.3814 -1.5560
18740THY    CA155799   5.038   0.593   1.918 -0.5298  0.6638 -0.3629
18740THY    CA255800   5.052   0.740   1.902  0.4693 -0.0479 -0.7322
18740THY    CP155801   5.173   0.816   1.848  0.0287  0.5290  0.3016
18740THY    HP155802   5.257   0.755   1.883  0.6512 -0.8177  0.3508
18740THY    CP255803   5.197   0.960   1.901  0.1111 -0.3048 -0.0058
18740THY    HP255804   5.192   0.968   2.010 -0.5336 -0.3762  0.7786
18740THY    HP355805   5.125   1.031   1.858 -1.5471  0.7373 -0.9700
18740THY    HP455806   5.296   0.996   1.871 -0.0797 -1.2648 -0.2494
18740THY    CP355807   5.178   0.807   1.698  0.0427 -0.0472 -0.8556
18740THY    HP555808   5.146   0.708   1.664 -0.9004 -2.2404  0.1302
18740THY    HP655809   5.279   0.834   1.663  0.2817  0.8051 -0.6096
18740THY    HP755810   5.117   0.890   1.659 -0.5518  0.0444 -1.2438
18740THY    CA355811   4.943   0.818   1.948  0.4180  0.6571  0.5716
18740THY    HA355812   4.950   0.926   1.943  3.1026 -0.4285  0.4392
18740THY    CA455813   4.831   0.758   2.003  0.4828 -0.0623  0.7218
18740THY    HA455814   4.738   0.808   2.028 -3.4355 -1.0971 -5.0569
18740THY    CA555815   4.826   0.615   2.022 -0.6130  0.3628  0.0688
18740THY    CM155816   4.701   0.556   2.074  0.5272 -0.1396  0.3884
18740THY    HM155817   4.695   0.464   2.015  0.5655 -1.3644  1.1411
18740THY    HM255818   4.609   0.609   2.047  0.9458 -3.8134 -0.4760
18740THY    HM355819   4.709   0.515   2.175 -2.0880 -0.1490 -0.3171
18740THY    CA655820   4.930   0.530   1.975 -0.3603  1.1810 -0.8992
18740THY    HA655821   4.931   0.422   1.986  1.5349 -3.5233 -1.6043
18741THY      O55822   5.074   8.586   3.868 -0.0078 -0.0833  0.0013
18741THY     HO55823   5.017   8.509   3.850 -0.7881  1.1115  0.2697
18741THY    CA155824   4.991   8.688   3.819  0.2147  0.9677 -1.0095
18741THY    CA255825   5.043   8.821   3.808 -0.5166 -0.2607  0.2035
18741THY    CP155826   5.192   8.848   3.833 -0.5542  0.4477 -0.2503
18741THY    HP155827   5.232   8.766   3.894  3.1293  0.9519  1.7124
18741THY    CP255828   5.215   8.980   3.909  0.9089 -0.3199  0.6473
18741THY    HP255829   5.154   8.978   4.000  0.6997 -0.4378  1.4639
18741THY    HP355830   5.180   9.062   3.846  0.9277 -2.0786 -0.6232
18741THY    HP455831   5.320   8.999   3.932  0.2851  2.0201  1.5530
18741THY    CP355832   5.271   8.852   3.698  0.2579 -1.0798 -0.4273
18741THY    HP555833   5.255   8.951   3.655  0.3369 -4.0201 -1.5888
18741THY    HP655834   5.243   8.776   3.625  0.7488 -0.4911 -1.1890
18741THY    HP755835   5.380   8.842   3.709  0.1698 -0.7207 -1.0491
18741THY    CA355836   4.953   8.923   3.772  0.7229  0.4482 -0.0330
18741THY    HA355837   4.987   9.023   3.746 -1.1974  0.4689  0.6786
18741THY    CA455838   4.818   8.892   3.737  0.3751  0.4048  0.1476
18741THY    HA455839   4.744   8.965   3.707 -0.4437  0.6098 -0.5908
18741THY    CA555840   4.775   8.762   3.752 -0.2321 -0.7915  0.1421
18741THY    CM155841   4.642   8.725   3.718  0.3264  0.1041 -0.1511
18741THY    HM155842   4.573   8.810   3.719  1.7858  0.8858  1.0856
18741THY    HM255843   4.604   8.658   3.797  3.8312  0.0520 -2.4956
18741THY    HM355844   4.647   8.677   3.620  0.9206 -0.4641  1.0434
18741THY    CA655845   4.862   8.657   3.789  0.0324 -0.1520  0.0995
18741THY    HA655846   4.817   8.558   3.794  0.6368 -0.4160 -0.1976
18742THY      O55847   1.186   9.277   4.560 -0.2048 -0.0602  0.0535
18742THY     HO55848   1.271   9.300   4.519 -0.8347 -0.6791  1.3149
18742THY    CA155849   1.190   9.141   4.581  0.5324 -0.4022  0.7983
18742THY    CA255850   1.098   9.066   4.661  0.3585 -0.4049 -0.3541
18742THY    CP155851   0.978   9.138   4.726 -0.1976 -0.6388 -0.2966
18742THY    HP155852   0.947   9.221   4.662 -0.3163 -0.8509 -0.5021
18742THY    CP255853   1.031   9.190   4.860  0.1439 -0.3262  1.2083
18742THY    HP255854   0.965   9.268   4.899 -2.1438  0.9578 -1.1894
18742THY    HP355855   1.129   9.239   4.854  0.4151  0.5033  0.7832
18742THY    HP455856   1.035   9.106   4.930 -0.5908 -0.6342  0.9076
18742THY    CP355857   0.843   9.062   4.748 -0.7070 -0.5140  0.4298
18742THY    HP555858   0.841   8.974   4.813  0.5671 -1.0151  0.0180
18742THY    HP655859   0.805   9.024   4.652 -0.5601 -0.2357 -0.4365
18742THY    HP755860   0.765   9.126   4.791 -0.5441  3.8930 -1.9725
18742THY    CA355861   1.124   8.928   4.682  0.6186  0.4181  0.6995
18742THY    HA355862   1.067   8.868   4.752 -0.3169 -0.1267  0.9343
18742THY    CA455863   1.232   8.866   4.616  0.5633  0.0673 -0.1626
18742THY    HA455864   1.263   8.766   4.644  2.3296  0.8440  0.5655
18742THY    CA555865   1.324   8.943   4.539 -0.1068  0.0016  0.9205
18742THY    CM155866   1.437   8.871   4.473  0.3790  0.0704  0.6701
18742THY    HM155867   1.434   8.762   4.460  1.0902 -0.0883  0.6647
18742THY    HM255868   1.536   8.880   4.519 -0.2812  3.2243 -4.0469
18742THY    HM355869   1.432   8.898   4.367  0.9321 -0.0940  0.1615
18742THY    CA655870   1.299   9.077   4.513  0.2670  0.0891 -0.1909
18742THY    HA655871   1.364   9.136   4.449 -0.6338  0.4034  1.1745
18743THY      O55872   7.707   2.238   2.902  0.1999 -0.1385  0.1116
18743THY     HO55873   7.644   2.186   2.955  1.2181 -0.4547 -1.5190
18743THY    CA155874   7.644   2.362   2.873 -0.4056 -0.3815 -0.8788
18743THY    CA255875   7.675   2.437   2.756 -0.1062 -0.2327 -0.2299
18743THY    CP155876   7.783   2.390   2.653  0.2640  0.3534 -0.2781
18743THY    HP155877   7.868   2.355   2.713 -0.2062  1.4048  0.3445
18743THY    CP255878   7.843   2.504   2.573  0.8822  0.5525  0.2659
18743THY    HP255879   7.936   2.462   2.534  0.8684 -0.0484  0.7920
18743THY    HP355880   7.851   2.597   2.630 -0.1874  2.3110 -0.6479
18743THY    HP455881   7.774   2.526   2.491  1.6689  0.1854  1.4243
18743THY    CP355882   7.737   2.268   2.574  0.1298  0.1501  0.6646
18743THY    HP555883   7.638   2.281   2.528  0.0883  0.1381  0.3028
18743THY    HP655884   7.723   2.186   2.645 -0.2253  1.8041  2.0859
18743THY    HP755885   7.817   2.247   2.502  1.1794  0.4948  3.0509
18743THY    CA355886   7.605   2.554   2.728 -0.1582 -1.3344 -0.2379
18743THY    HA355887   7.612   2.613   2.637  1.8085 -0.3431  1.2060
18743THY    CA455888   7.497   2.589   2.816 -0.3628 -0.0766 -0.1533
18743THY    HA455889   7.450   2.681   2.782  2.1122 -1.8728  0.5767
18743THY    CA555890   7.476   2.523   2.942  0.4285  0.3438  1.0410
18743THY    CM155891   7.371   2.563   3.030  0.0662  0.3026  0.2342
18743THY    HM155892   7.315   2.472   3.056  0.0741  1.4648  0.5469
18743THY    HM255893   7.300   2.631   2.982 -1.0160  1.5594  0.0440
18743THY    HM355894   7.404   2.602   3.127  0.4384  0.4117 -0.3387
18743THY    CA655895   7.550   2.403   2.966  0.2908 -0.1088 -0.4351
18743THY    HA655896   7.522   2.337   3.047  0.0776  0.2968  0.1395
18744THY      O55897   7.881   1.683   6.995 -0.2548 -0.4733 -0.0354
18744THY     HO55898   7.973   1.709   6.978 -0.1423  0.6250  0.3704
18744THY    CA155899   7.858   1.729   7.116 -0.9081  0.0850 -0.6338
18744THY    CA255900   7.725   1.769   7.155 -0.6902 -0.1521  0.2467
18744THY    CP155901   7.606   1.745   7.057 -0.8468 -0.1456 -0.2388
18744THY    HP155902   7.613   1.659   6.990 -0.7796  1.7344 -1.7490
18744THY    CP255903   7.597   1.858   6.958 -0.2835 -0.8113  0.1140
18744THY    HP255904   7.687   1.870   6.896  1.8217  1.7025 -1.5034
18744THY    HP355905   7.596   1.950   7.017 -0.6083  1.0225 -1.0143
18744THY    HP455906   7.510   1.842   6.894 -0.9048  0.3984 -1.6548
18744THY    CP355907   7.473   1.723   7.131 -0.2498 -0.4436 -0.2296
18744THY    HP555908   7.451   1.810   7.194  0.5187 -0.4734 -0.0077
18744THY    HP655909   7.482   1.631   7.190  0.0159 -2.8126 -1.8032
18744THY    HP755910   7.391   1.711   7.059  0.6305 -1.8840  1.8857
18744THY    CA355911   7.715   1.817   7.288 -0.4953 -0.6371  0.0075
18744THY    HA355912   7.617   1.836   7.331 -1.0719 -1.7946 -0.2906
18744THY    CA455913   7.829   1.829   7.371 -0.4429 -0.1320  0.0376
18744THY    HA455914   7.819   1.868   7.472 -0.0351  0.4333 -1.2704
18744THY    CA555915   7.954   1.796   7.323  0.2659  0.1417 -0.5264
18744THY    CM155916   8.079   1.789   7.411  0.1952 -0.1609  0.3733
18744THY    HM155917   8.097   1.682   7.428 -2.6232 -0.0574 -0.1726
18744THY    HM255918   8.071   1.839   7.509  0.5144  0.4584 -0.7529
18744THY    HM355919   8.160   1.825   7.348 -0.3875  0.5499  3.2294
18744THY    CA655920   7.965   1.748   7.193 -0.1897  0.0717 -0.2422
18744THY    HA655921   8.066   1.726   7.162  0.7453  3.8274 -1.8700
18745THY      O55922   8.953   7.080   3.987  0.5273  0.3794  0.3377
18745THY     HO55923   8.884   7.148   3.987 -0.5376 -1.5744 -0.6323
18745THY    CA155924   9.046   7.110   3.902  0.3417  0.3084 -0.1140
18745THY    CA255925   9.152   7.025   3.869  0.4095 -0.2339  0.4660
18745THY    CP155926   9.168   6.887   3.940  0.2724 -0.2257  0.3409
18745THY    HP155927   9.124   6.901   4.040  0.3138 -0.1922  0.2358
18745THY    CP255928   9.306   6.827   3.973  0.4166  0.5660 -0.5597
18745THY    HP255929   9.374   6.908   4.004 -0.4122  2.2404 -0.4666
18745THY    HP355930   9.355   6.796   3.880 -0.8443 -1.3806  2.7137
18745THY    HP455931   9.300   6.754   4.054  0.2019  0.7035 -0.3913
18745THY    CP355932   9.085   6.772   3.872 -0.6119  0.1712 -0.9153
18745THY    HP555933   9.120   6.730   3.777  1.6327  0.0372  1.0339
18745THY    HP655934   8.984   6.812   3.859 -0.1152 -1.0970  0.0092
18745THY    HP755935   9.070   6.693   3.946 -0.4531  0.8649 -0.3180
18745THY    CA355936   9.247   7.072   3.779 -0.8764 -0.3492 -0.5354
18745THY    HA355937   9.340   7.022   3.753  0.1780 -2.0343  2.0502
18745THY    CA455938   9.247   7.204   3.732 -0.1984 -0.2284 -0.2311
18745THY    HA455939   9.325   7.240   3.666 -0.3386  0.9960  2.6108
18745THY    CA555940   9.144   7.292   3.774 -0.2863  0.1518  0.7925
18745THY    CM155941   9.162   7.440   3.739  0.3262 -0.1587  0.1014
18745THY    HM155942   9.262   7.483   3.757  0.3820 -1.5710  0.5970
18745THY    HM255943   9.092   7.504   3.795 -2.4228 -1.9422 -1.1718
18745THY    HM355944   9.140   7.471   3.637  0.0700 -0.0168  0.3968
18745THY    CA655945   9.044   7.243   3.853 -0.0143 -0.5421  0.0796
18745THY    HA655946   8.957   7.302   3.879 -0.4882  1.1128 -1.2643
18746THY      O55947   8.661   4.191   1.937 -0.5669  0.2489  0.3937
18746THY     HO55948   8.625   4.107   1.970 -0.3400  0.8719  0.5364
18746THY    CA155949   8.789   4.174   1.917 -0.2211 -0.1239  0.2985
18746THY    CA255950   8.877   4.273   1.869  0.6585 -1.0042  0.1634
18746THY    CP155951   8.818   4.415   1.829  0.1370 -0.2643  0.3956
18746THY    HP155952   8.715   4.425   1.866  0.1256 -0.1907  0.0015
18746THY    CP255953   8.825   4.431   1.675 -1.3299 -0.6183  0.3907
18746THY    HP255954   8.926   4.450   1.637 -0.2082  1.1036 -1.6918
18746THY    HP355955   8.762   4.515   1.644 -1.1140 -0.0840  0.7546
18746THY    HP455956   8.801   4.330   1.638 -0.1675 -0.8991  0.2060
18746THY    CP355957   8.893   4.529   1.885 -0.0214 -0.1456 -0.1318
18746THY    HP555958   8.915   4.521   1.992  3.6809 -0.7849 -0.2293
18746THY    HP655959   8.844   4.625   1.860 -0.0150 -1.2136 -0.3914
18746THY    HP755960   8.990   4.532   1.835 -0.4949 -1.0652  0.5870
18746THY    CA355961   9.015   4.252   1.868 -0.0202 -0.0284 -0.0851
18746THY    HA355962   9.076   4.338   1.847 -2.1627  0.2024  1.5714
18746THY    CA455963   9.056   4.127   1.914  0.4711 -0.0886  0.1544
18746THY    HA455964   9.163   4.109   1.906  0.5343  1.7586 -0.5573
18746THY    CA555965   8.970   4.016   1.936  0.0481 -0.9900 -0.3274
18746THY    CM155966   9.028   3.885   1.980  0.7252  0.3258 -0.2159
18746THY    HM155967   8.943   3.817   1.979 -0.9224  1.4298  1.6989
18746THY    HM255968   9.071   3.883   2.081  0.3558  0.5005  0.3594
18746THY    HM355969   9.103   3.852   1.906  0.1786 -1.0264  1.4143
18746THY    CA655970   8.837   4.045   1.941  0.0334  1.1920  0.4503
18746THY    HA655971   8.765   3.970   1.974 -0.0430 -1.3847 -0.6878
18747THY      O55972   2.113   6.496   2.588 -0.0612 -0.1030 -0.0204
18747THY     HO55973   2.126   6.449   2.504 -2.0299 -1.2814  1.3619
18747THY    CA155974   2.187   6.612   2.587  0.0914  0.0797  0.7180
18747THY    CA255975   2.204   6.693   2.705 -0.0606 -0.4380  0.2533
18747THY    CP155976   2.146   6.644   2.835  0.1409  0.1092 -0.0881
18747THY    HP155977   2.067   6.575   2.804 -0.0647  2.4498 -0.9996
18747THY    CP255978   2.079   6.762   2.915  1.0593 -0.6125  0.5453
18747THY    HP255979   2.020   6.727   3.001  2.5713  0.6605  1.0090
18747THY    HP355980   2.021   6.822   2.844  1.8583 -1.6542  0.1082
18747THY    HP455981   2.156   6.825   2.961  0.6938  1.6661 -0.5364
18747THY    CP355982   2.249   6.572   2.922 -0.2360 -0.1326  0.3001
18747THY    HP555983   2.208   6.499   2.993 -3.8145 -1.5126  0.7889
18747THY    HP655984   2.295   6.647   2.987 -0.6730  3.2508 -2.1113
18747THY    HP755985   2.328   6.528   2.859  1.7956  1.3575  1.6224
18747THY    CA355986   2.279   6.816   2.690  0.4607 -0.0833  0.4333
18747THY    HA355987   2.294   6.875   2.780 -1.4718  0.8335 -0.3651
18747THY    CA455988   2.321   6.856   2.562 -0.0464 -0.1099  0.9049
18747THY    HA455989   2.365   6.953   2.545  1.6777  0.4066  0.2545
18747THY    CA555990   2.291   6.770   2.449 -0.3681 -0.1678  0.5302
18747THY    CM155991   2.343   6.798   2.308 -0.2385  0.0329 -0.2931
18747THY    HM155992   2.421   6.726   2.282  0.4132  0.9668  0.0521
18747THY    HM255993   2.389   6.897   2.299 -0.1546  1.6205 -0.1568
18747THY    HM355994   2.265   6.781   2.233  1.5147 -1.2728 -3.3891
18747THY    CA655995   2.220   6.651   2.461 -0.3417  0.3269 -0.1417
18747THY    HA655996   2.200   6.585   2.377 -1.0406  1.0234 -0.8298
18748THY      O55997   1.190   9.148   7.200  0.2696 -0.7688 -0.8089
18748THY     HO55998   1.202   9.243   7.213 -2.0389  1.5085 -0.7223
18748THY    CA155999   1.206   9.099   7.322  0.2676  0.5095  0.2387
18748THY    CA256000   1.114   9.002   7.367 -0.2451 -0.2047  0.0089
18748THY    CP156001   0.986   8.961   7.292  0.5499  0.1266 -0.3125
18748THY    HP156002   1.019   8.963   7.187  0.5647  0.1432  0.9876
18748THY    CP256003   0.872   9.062   7.301  0.6578  0.6141  0.1236
18748THY    HP256004   0.799   9.021   7.231  2.2224 -1.5580  0.8981
18748THY    HP356005   0.900   9.157   7.255  1.6279 -0.3893 -0.6290
18748THY    HP456006   0.838   9.086   7.403 -0.1087 -0.0187  1.8626
18748THY    CP356007   0.932   8.818   7.303  0.6459 -0.0059  0.1129
18748THY    HP556008   1.020   8.754   7.290 -0.2524  0.4013 -1.2374
18748THY    HP656009   0.847   8.806   7.234  0.7263  0.2239 -2.1504
18748THY    HP756010   0.888   8.803   7.402 -0.3621 -0.4453  0.1086
18748THY    CA356011   1.131   8.947   7.496  1.0550 -0.3306 -0.2079
18748THY    HA356012   1.052   8.886   7.540 -0.1625 -1.6620  0.3430
18748THY    CA456013   1.239   8.983   7.570 -0.2906  0.4319  0.0060
18748THY    HA456014   1.247   8.963   7.677  0.3091  1.1634  3.5187
18748THY    CA556015   1.347   9.063   7.514 -0.1041 -0.2408  0.8629
18748THY    CM156016   1.466   9.096   7.600 -0.1313  0.8408 -0.2700
18748THY    HM156017   1.512   9.001   7.626 -0.8878  2.5942 -0.1964
18748THY    HM256018   1.441   9.143   7.696  3.2941  1.6257  0.1865
18748THY    HM356019   1.531   9.168   7.549  1.9075 -0.7636 -3.0473
18748THY    CA656020   1.327   9.121   7.392  0.7240 -1.5375  0.5269
18748THY    HA656021   1.382   9.206   7.354 -0.7491 -2.0626  1.2854
18749THY      O56022   8.754   5.142   2.512 -0.6932  0.0366 -0.1822
18749THY     HO56023   8.811   5.219   2.497 -0.3853  0.6294 -0.2883
18749THY    CA156024   8.654   5.186   2.594  0.3007 -0.3397  0.8965
18749THY    CA256025   8.562   5.098   2.658  0.3016  0.2952  0.1420
18749THY    CP156026   8.562   4.952   2.618 -0.0700  0.5368  0.0736
18749THY    HP156027   8.646   4.920   2.555  1.4427  1.1604  2.5688
18749THY    CP256028   8.431   4.926   2.553  1.0287  0.3381 -0.6054
18749THY    HP256029   8.429   4.820   2.524  2.1141 -1.7588 -0.1166
18749THY    HP356030   8.433   4.987   2.462  0.4779  1.6487  1.4455
18749THY    HP456031   8.346   4.954   2.615  0.8013  0.0195 -0.5835
18749THY    CP356032   8.579   4.866   2.738  0.6326 -0.6141 -0.0549
18749THY    HP556033   8.665   4.895   2.799 -1.3728  1.6253  1.5464
18749THY    HP656034   8.589   4.761   2.707 -2.0498  2.6263 -1.4457
18749THY    HP756035   8.497   4.891   2.806 -0.2603 -1.9815  0.8852
18749THY    CA356036   8.472   5.156   2.741 -0.6297  0.1146 -0.0015
18749THY    HA356037   8.408   5.089   2.799  0.2762  0.7030 -0.3679
18749THY    CA456038   8.463   5.298   2.761 -0.2445  0.7007  0.2681
18749THY    HA456039   8.394   5.341   2.834 -0.8954 -0.5862  1.4768
18749THY    CA556040   8.563   5.380   2.707  0.1901 -0.0565 -0.6580
18749THY    CM156041   8.574   5.529   2.748 -0.3163 -0.0190 -0.0660
18749THY    HM156042   8.480   5.570   2.709 -0.6128  0.4265 -0.3151
18749THY    HM256043   8.644   5.588   2.687 -3.1905 -2.3183  1.2139
18749THY    HM356044   8.595   5.543   2.855  1.0612 -0.1711 -0.7905
18749THY    CA656045   8.655   5.326   2.621  0.0547  0.4799  0.6031
18749THY    HA656046   8.732   5.389   2.578 -0.1078 -0.1095  0.4101
18750THY      O56047   0.890   3.481   6.259  0.2831  0.3695 -0.1400
18750THY     HO56048   0.958   3.420   6.293 -0.2359  0.6298 -0.5826
18750THY    CA156049   0.781   3.484   6.330 -0.1735  0.5258 -0.1327
18750THY    CA256050   0.696   3.591   6.333 -0.0623 -0.2127 -1.0535
18750THY    CP156051   0.718   3.708   6.237  0.0679 -0.2044 -0.6341
18750THY    HP156052   0.759   3.659   6.148 -0.9814 -0.2762 -1.4188
18750THY    CP256053   0.818   3.813   6.290  0.2421 -0.0520 -0.3054
18750THY    HP256054   0.917   3.765   6.296 -0.2901  0.8922 -1.3457
18750THY    HP356055   0.772   3.837   6.387 -0.6660  0.8481 -4.7542
18750THY    HP456056   0.833   3.890   6.214 -0.0342 -0.0937 -0.2920
18750THY    CP356057   0.587   3.783   6.194  0.5430 -0.4705  0.2003
18750THY    HP556058   0.622   3.858   6.122  1.5401  0.6069  0.8256
18750THY    HP656059   0.531   3.822   6.281 -0.9452 -0.3413 -2.0590
18750THY    HP756060   0.525   3.719   6.131  2.0985 -2.0653  0.1911
18750THY    CA356061   0.590   3.587   6.430 -0.1716 -0.4596  0.5824
18750THY    HA356062   0.519   3.669   6.442 -1.8976 -1.0434 -0.7462
18750THY    CA456063   0.576   3.474   6.511  1.0187  0.4777 -0.0538
18750THY    HA456064   0.501   3.470   6.590  1.4147  0.8876  0.4207
18750THY    CA556065   0.652   3.363   6.494  0.2214  0.3243 -0.2021
18750THY    CM156066   0.631   3.235   6.574  0.4378 -0.3108 -0.1526
18750THY    HM156067   0.606   3.150   6.509  0.1828 -0.8193  0.3030
18750THY    HM256068   0.545   3.250   6.642  0.5898 -0.3674  1.1197
18750THY    HM356069   0.723   3.217   6.631  0.1013  0.1416 -0.4851
18750THY    CA656070   0.763   3.371   6.412 -0.0396  0.7903  0.5472
18750THY    HA656071   0.839   3.293   6.417  1.8280 -1.3692  2.0952
18751THY      O56072   6.564   9.531   5.620  0.5086  0.1838 -0.3990
18751THY     HO56073   6.505   9.560   5.692 -4.5719 -3.2476 -0.7689
18751THY    CA156074   6.668   9.465   5.673 -0.4563  0.6190  0.2292
18751THY    CA256075   6.761   9.399   5.588  0.1634  0.5741  0.4479
18751THY    CP156076   6.748   9.407   5.435  0.0351 -0.5776 -0.6997
18751THY    HP156077   6.680   9.488   5.406  1.0106  0.2961  0.4907
18751THY    CP256078   6.688   9.284   5.377 -0.5957  0.7008 -0.3868
18751THY    HP256079   6.678   9.303   5.269 -0.1459  0.7109 -0.0769
18751THY    HP356080   6.594   9.263   5.429 -0.6705  0.4815 -0.5980
18751THY    HP456081   6.760   9.203   5.394 -2.6260 -0.4672 -2.5715
18751THY    CP356082   6.880   9.442   5.366  0.0463 -0.1432  0.1561
18751THY    HP556083   6.943   9.518   5.414 -0.4837 -1.9505  1.8333
18751THY    HP656084   6.860   9.465   5.260 -2.4355 -0.0194 -1.0589
18751THY    HP756085   6.934   9.347   5.361 -1.6808  2.8081 -1.1283
18751THY    CA356086   6.859   9.313   5.644  0.0959  0.4918 -0.2324
18751THY    HA356087   6.932   9.259   5.585  0.1313  1.2691 -1.0529
18751THY    CA456088   6.859   9.300   5.783  0.4116 -0.0177 -0.2770
18751THY    HA456089   6.936   9.239   5.831  0.0702  0.0297 -0.6703
18751THY    CA556090   6.773   9.374   5.870  0.2800  0.2448 -0.4104
18751THY    CM156091   6.781   9.365   6.016 -0.5451  0.3385 -0.0161
18751THY    HM156092   6.742   9.269   6.053 -1.5671 -2.7690 -0.9052
18751THY    HM256093   6.723   9.445   6.064 -0.7683  3.1856 -1.7272
18751THY    HM356094   6.886   9.385   6.040 -0.1261 -1.0330 -0.4891
18751THY    CA656095   6.673   9.453   5.815  0.2989 -0.0744  0.4963
18751THY    HA656096   6.602   9.501   5.883 -1.1783 -1.8350  0.9246
18752THY      O56097   4.953   7.386   3.240 -0.4616  0.0696 -0.2627
18752THY     HO56098   4.918   7.324   3.174 -2.1582 -0.3807  1.0995
18752THY    CA156099   5.084   7.347   3.257  0.2000  0.0802 -0.6637
18752THY    CA256100   5.170   7.413   3.343 -0.1281  0.3479 -0.4155
18752THY    CP156101   5.121   7.520   3.443  0.6288  0.6241 -0.4527
18752THY    HP156102   5.012   7.520   3.451  0.3106 -2.5950  0.4278
18752THY    CP256103   5.168   7.657   3.392 -0.3369 -0.1179  0.3847
18752THY    HP256104   5.117   7.736   3.449 -1.1192 -1.1065  0.6141
18752THY    HP356105   5.126   7.675   3.292 -0.5288  0.1649  1.5804
18752THY    HP456106   5.275   7.678   3.399  0.8244 -4.6568 -2.4361
18752THY    CP356107   5.160   7.514   3.602  0.0883  0.6007 -0.2019
18752THY    HP556108   5.260   7.478   3.624 -0.3100 -1.0076 -2.5074
18752THY    HP656109   5.098   7.440   3.654 -0.8889 -1.3375 -0.8112
18752THY    HP756110   5.142   7.613   3.646  1.9260  1.9006 -0.4133
18752THY    CA356111   5.301   7.362   3.362  0.4689  0.0831 -0.2297
18752THY    HA356112   5.368   7.396   3.440  0.9864  0.8451 -2.7925
18752THY    CA456113   5.343   7.258   3.282 -0.6211 -0.6087  0.7210
18752THY    HA456114   5.445   7.224   3.296 -0.5011 -1.4000  0.7206
18752THY    CA556115   5.257   7.193   3.188 -0.5255  0.0475  0.1980
18752THY    CM156116   5.322   7.094   3.088  0.3130  0.3337  0.2128
18752THY    HM156117   5.339   7.141   2.991 -0.7260  0.8816  1.7899
18752THY    HM256118   5.249   7.015   3.065 -0.4030 -2.3184  1.5456
18752THY    HM356119   5.414   7.056   3.133  0.4461 -0.4634 -0.4550
18752THY    CA656120   5.126   7.240   3.179  0.2123  0.7271  0.4135
18752THY    HA656121   5.062   7.196   3.103  1.4873 -0.0300 -0.1854
18753THY      O56122   6.705   3.167   7.772 -0.4939  0.5587  0.0612
18753THY     HO56123   6.675   3.242   7.718 -1.4688 -0.3679 -0.9615
18753THY    CA156124   6.768   3.082   7.683 -0.3318 -0.2969  0.1579
18753THY    CA256125   6.726   2.950   7.670 -0.3427 -0.1917 -0.0518
18753THY    CP156126   6.626   2.888   7.776  0.3317 -0.2497  0.1153
18753THY    HP156127   6.580   2.964   7.840  0.7955  2.7101 -1.9219
18753THY    CP256128   6.696   2.798   7.880 -0.0266  0.2290 -0.0160
18753THY    HP256129   6.739   2.723   7.814 -0.6764 -0.5694  0.2990
18753THY    HP356130   6.630   2.759   7.958  0.1766  0.7866  0.7241
18753THY    HP456131   6.772   2.854   7.936 -1.7592  1.7177  0.9835
18753THY    CP356132   6.497   2.823   7.709 -0.3834  0.3029  0.2282
18753THY    HP556133   6.419   2.835   7.785  0.1495  0.6082  2.1223
18753THY    HP656134   6.500   2.716   7.685 -2.6127 -0.3056  0.2507
18753THY    HP756135   6.466   2.878   7.619  0.8761 -1.7021 -2.1540
18753THY    CA356136   6.790   2.875   7.566  0.7121 -0.3235  0.1973
18753THY    HA356137   6.772   2.769   7.551  0.4481 -2.6257  0.5238
18753THY    CA456138   6.874   2.941   7.470  0.2723  0.1070 -0.5431
18753THY    HA456139   6.925   2.892   7.387 -0.7579 -0.7883 -0.1447
18753THY    CA556140   6.905   3.082   7.482 -1.1663 -1.2183  0.7573
18753THY    CM156141   7.001   3.147   7.387  0.3570  0.6801 -0.8186
18753THY    HM156142   6.979   3.126   7.282 -0.4494  0.0668  2.4462
18753THY    HM256143   7.101   3.112   7.416  0.4063  1.8668  0.2223
18753THY    HM356144   7.014   3.256   7.395 -1.3779  0.0172 -0.5278
18753THY    CA656145   6.844   3.150   7.585  0.9624  0.4519  0.2285
18753THY    HA656146   6.870   3.256   7.581 -1.0956  1.5125  0.8165
18754THY      O56147   2.051   1.985   3.475  0.0851 -0.8028 -0.6034
18754THY     HO56148   2.043   1.898   3.518  1.0024  1.0203  0.1579
18754THY    CA156149   2.180   1.982   3.441 -0.4471  0.4819  0.7975
18754THY    CA256150   2.228   2.062   3.334  0.3454  0.8496  0.0851
18754THY    CP156151   2.129   2.120   3.237 -0.3306  0.9580  0.0838
18754THY    HP156152   2.038   2.153   3.288 -0.7794  0.4627 -0.3653
18754THY    CP256153   2.101   2.016   3.124 -0.0281  0.2571 -0.4044
18754THY    HP256154   2.043   1.934   3.167 -0.9095  0.9539  0.5641
18754THY    HP356155   2.197   1.993   3.076  0.0133  0.6890 -1.1317
18754THY    HP456156   2.042   2.051   3.038 -1.3805  1.3394  0.0387
18754THY    CP356157   2.167   2.247   3.161  0.8695 -0.5601 -0.1043
18754THY    HP556158   2.235   2.303   3.225 -0.2569 -0.9432  1.7767
18754THY    HP656159   2.074   2.302   3.144  1.0126  0.7507  0.5785
18754THY    HP756160   2.228   2.217   3.075  0.4274 -0.2905 -1.9400
18754THY    CA356161   2.363   2.055   3.307 -0.1470  0.3524 -0.6520
18754THY    HA356162   2.409   2.113   3.228 -2.2504  0.8825  1.9506
18754THY    CA456163   2.448   1.993   3.400  0.2108 -0.3831  0.3059
18754THY    HA456164   2.553   1.979   3.378  0.2354  1.0503 -2.4586
18754THY    CA556165   2.397   1.925   3.508 -0.2328 -0.5684 -1.0027
18754THY    CM156166   2.482   1.839   3.602  0.1483 -0.5615 -0.2990
18754THY    HM156167   2.471   1.730   3.602  0.7498 -2.0535 -0.3875
18754THY    HM256168   2.468   1.878   3.703 -0.2075  0.1614 -2.2020
18754THY    HM356169   2.586   1.864   3.577  0.1226  0.1884  0.6015
18754THY    CA656170   2.262   1.912   3.521  0.4045  0.3026  0.3053
18754THY    HA656171   2.223   1.852   3.603 -0.9059 -0.5921 -0.1213
18755THY      O56172   1.004   4.560   4.882 -0.0261  0.1383  0.1761
18755THY     HO56173   1.018   4.470   4.917 -0.8924 -1.5244 -0.6657
18755THY    CA156174   1.125   4.614   4.899  0.9672 -0.0976  0.2025
18755THY    CA256175   1.168   4.732   4.841 -0.5463  0.0357  0.3237
18755THY    CP156176   1.086   4.823   4.756 -0.7779  0.3559  0.0220
18755THY    HP156177   0.988   4.778   4.733 -0.5434 -1.4550  0.3381
18755THY    CP256178   1.135   4.847   4.611 -1.3140  0.3667  0.6228
18755THY    HP256179   1.184   4.755   4.576 -0.2012  0.6837  1.0673
18755THY    HP356180   1.214   4.924   4.616 -0.3342  1.0588 -0.3894
18755THY    HP456181   1.057   4.887   4.546 -1.2666  0.6643  1.2121
18755THY    CP356182   1.068   4.957   4.820 -0.4151 -0.8329  0.6378
18755THY    HP556183   0.999   5.014   4.757  0.2788 -0.6101  1.7534
18755THY    HP656184   1.157   5.021   4.812 -0.7510  0.9475  1.3820
18755THY    HP756185   1.037   4.952   4.925  2.7792  0.2672  1.2275
18755THY    CA356186   1.304   4.778   4.858  0.3547  0.4989  0.0682
18755THY    HA356187   1.332   4.878   4.829  1.3699  0.9011 -0.0866
18755THY    CA456188   1.383   4.700   4.940 -0.2627  0.3968  0.0255
18755THY    HA456189   1.483   4.738   4.959  0.0926 -1.6988  0.3006
18755THY    CA556190   1.342   4.580   4.983 -0.5613 -0.7248 -0.1275
18755THY    CM156191   1.442   4.496   5.059 -0.7512 -0.7670  0.3586
18755THY    HM156192   1.426   4.510   5.166  1.7825 -0.3512  0.4624
18755THY    HM256193   1.545   4.509   5.026  0.2963  2.3143  0.4911
18755THY    HM356194   1.427   4.392   5.026  1.0246 -1.6623  0.3566
18755THY    CA656195   1.214   4.533   4.958 -0.4558 -0.2928 -0.0537
18755THY    HA656196   1.195   4.431   4.990 -0.9221  1.5694  0.5959
18756THY      O56197   5.425   9.025   6.687  0.3147 -0.3819 -0.3022
18756THY     HO56198   5.461   8.990   6.770  1.4552  0.6841  3.0014
18756THY    CA156199   5.449   8.932   6.588 -0.4538  0.5725  0.4693
18756THY    CA256200   5.395   8.941   6.459  0.5435 -0.2335  0.4917
18756THY    CP156201   5.308   9.069   6.431 -0.3182  0.5963  1.0241
18756THY    HP156202   5.360   9.148   6.487  1.5996  1.4060 -0.7124
18756THY    CP256203   5.168   9.057   6.494  0.1284  0.0031  0.4047
18756THY    HP256204   5.103   9.132   6.448 -2.2032  1.9948 -0.2743
18756THY    HP356205   5.176   9.085   6.600  3.7421  0.2286 -0.9657
18756THY    HP456206   5.125   8.957   6.500  2.5799  0.3127 -0.7141
18756THY    CP356207   5.288   9.104   6.277  0.8147  0.8160  0.0957
18756THY    HP556208   5.227   9.195   6.274 -2.1631  1.8675 -1.7255
18756THY    HP656209   5.235   9.029   6.218 -0.6550  0.0801  1.6376
18756THY    HP756210   5.383   9.128   6.229 -0.6152 -2.1851  0.2126
18756THY    CA356211   5.424   8.851   6.351  0.7387 -0.5857  0.4359
18756THY    HA356212   5.378   8.866   6.254  0.1918 -0.1768  1.5446
18756THY    CA456213   5.510   8.743   6.379  0.5994  0.8873  0.4190
18756THY    HA456214   5.528   8.666   6.304  1.0224  0.8668  0.5384
18756THY    CA556215   5.575   8.738   6.499  0.5168 -1.0298  0.1943
18756THY    CM156216   5.659   8.620   6.522 -0.2648  0.4068 -0.3066
18756THY    HM156217   5.738   8.650   6.592 -1.4515  1.7353 -0.1970
18756THY    HM256218   5.722   8.609   6.433  0.8517  1.3379 -2.0029
18756THY    HM356219   5.607   8.524   6.535 -3.4477  1.0320  1.3821
18756THY    CA656220   5.546   8.833   6.604 -0.9230  0.5151 -0.7125
18756THY    HA656221   5.606   8.827   6.695  0.0210 -0.0436 -0.0071
18757THY      O56222   3.856   1.500   5.727 -0.2065 -0.5765 -0.1767
18757THY     HO56223   3.858   1.534   5.636  1.1101 -1.2896 -2.0128
18757THY    CA156224   3.799   1.375   5.703 -0.3244  0.5573  0.4362
18757THY    CA256225   3.734   1.297   5.803  0.2430  0.3257 -0.3626
18757THY    CP156226   3.738   1.354   5.950  0.2864  0.2964  0.1080
18757THY    HP156227   3.736   1.464   5.945  1.8614  0.8284  0.1782
18757THY    CP256228   3.866   1.313   6.011 -0.0901 -0.3613  0.3795
18757THY    HP256229   3.880   1.204   6.002  0.0749  1.0494  0.2580
18757THY    HP356230   3.866   1.342   6.117 -1.5743 -0.3562  0.4504
18757THY    HP456231   3.951   1.365   5.965  0.2505  1.9903  2.0504
18757THY    CP356232   3.625   1.295   6.033 -0.3215 -0.0261 -0.3021
18757THY    HP556233   3.616   1.351   6.127 -1.9919 -1.6770  2.4467
18757THY    HP656234   3.650   1.191   6.055 -0.4772 -0.0634 -0.3466
18757THY    HP756235   3.530   1.311   5.981  0.4565 -2.0474 -1.8558
18757THY    CA356236   3.683   1.171   5.771  1.0470 -0.1495 -0.3383
18757THY    HA356237   3.636   1.118   5.853 -0.2945  0.5550  1.7915
18757THY    CA456238   3.690   1.130   5.640  0.2849 -0.1274 -0.1920
18757THY    HA456239   3.632   1.043   5.610 -1.8963  0.1677  1.0813
18757THY    CA556240   3.760   1.206   5.539 -0.2236 -0.5125 -0.2898
18757THY    CM156241   3.774   1.165   5.395 -0.2433  0.7351  0.3328
18757THY    HM156242   3.713   1.227   5.328  0.7392 -1.3693 -0.8631
18757THY    HM256243   3.750   1.058   5.396  1.3518  0.8731 -0.0519
18757THY    HM356244   3.879   1.170   5.365 -0.3570  0.4816  1.4736
18757THY    CA656245   3.804   1.331   5.574 -0.3780  0.2784  0.5900
18757THY    HA656246   3.854   1.392   5.499  1.1280  0.2412 -0.6245
18758THY      O56247   2.997   9.006   3.186 -0.4518 -0.3300 -0.5122
18758THY     HO56248   2.933   8.954   3.237 -2.1229 -0.6357  1.1210
18758THY    CA156249   3.117   8.940   3.186  0.0255 -0.1176  0.3015
18758THY    CA256250   3.240   8.997   3.211  0.0153 -0.1399  0.0728
18758THY    CP156251   3.249   9.148   3.223 -0.4465 -0.3778 -0.4035
18758THY    HP156252   3.183   9.185   3.143 -2.6871  0.5659 -2.1124
18758THY    CP256253   3.390   9.210   3.203 -0.4603 -0.1404  0.5322
18758THY    HP256254   3.419   9.168   3.106  0.5097  0.9993 -1.6468
18758THY    HP356255   3.465   9.176   3.276  1.6376 -2.7081 -0.7980
18758THY    HP456256   3.387   9.319   3.196 -2.0028  1.2188  0.6147
18758THY    CP356257   3.205   9.209   3.359  0.0014 -0.2437 -0.2599
18758THY    HP556258   3.267   9.161   3.436 -0.8386 -0.1731 -1.2496
18758THY    HP656259   3.101   9.185   3.381 -0.0729  0.7673  0.8926
18758THY    HP756260   3.208   9.319   3.358 -1.8776 -0.9986 -0.1825
18758THY    CA356261   3.350   8.912   3.242 -0.3919  0.1939 -0.1520
18758THY    HA356262   3.446   8.952   3.271 -1.1453  2.0937  0.3543
18758THY    CA456263   3.337   8.772   3.234  0.5114 -0.3430  0.3033
18758THY    HA456264   3.419   8.706   3.259 -0.0519 -0.6577 -0.5224
18758THY    CA556265   3.218   8.715   3.208 -0.1099  0.2204  0.0105
18758THY    CM156266   3.203   8.568   3.233 -0.0619  0.4473 -0.7265
18758THY    HM156267   3.105   8.528   3.205 -0.8171  2.7602 -0.6095
18758THY    HM256268   3.209   8.548   3.340  0.4119  0.5800  0.0653
18758THY    HM356269   3.289   8.518   3.187  0.8776 -0.8912  1.9432
18758THY    CA656270   3.105   8.801   3.183  0.1221 -0.2193  0.2688
18758THY    HA656271   3.006   8.759   3.170  0.8658 -1.2808 -1.2381
18759THY      O56272   7.328   6.911   3.925 -0.2471  0.0946 -0.6292
18759THY     HO56273   7.302   6.956   4.007 -0.2996  1.1743 -2.5376
18759THY    CA156274   7.296   6.994   3.818 -0.4301 -0.5247  0.3324
18759THY    CA256275   7.290   7.132   3.834  0.1675  0.0613 -0.1506
18759THY    CP156276   7.314   7.197   3.976 -0.5531  0.2566  0.3298
18759THY    HP156277   7.329   7.127   4.059  0.4763  0.8739  1.2527
18759THY    CP256278   7.205   7.295   4.024 -0.6006  0.1089  0.4451
18759THY    HP256279   7.105   7.255   4.047 -0.3063  0.8205  0.1116
18759THY    HP356280   7.190   7.375   3.951  1.7801  0.0800  0.9167
18759THY    HP456281   7.244   7.340   4.115 -0.6387 -0.5508  1.8498
18759THY    CP356282   7.444   7.281   3.977  0.2903  0.0922  0.0205
18759THY    HP556283   7.428   7.387   3.951 -0.3961 -1.1053 -0.3593
18759THY    HP656284   7.520   7.252   3.904 -0.5835 -1.2389  0.9667
18759THY    HP756285   7.496   7.273   4.073  0.5324  0.0084  0.5522
18759THY    CA356286   7.270   7.214   3.717  0.2409 -0.7262  0.0695
18759THY    HA356287   7.270   7.322   3.721  0.2545  2.0850  0.0287
18759THY    CA456288   7.245   7.147   3.593 -0.7335  0.8134 -0.5542
18759THY    HA456289   7.216   7.208   3.508  2.0033  0.2613  0.1057
18759THY    CA556290   7.257   7.005   3.587  0.9591  0.2934  0.3557
18759THY    CM156291   7.247   6.937   3.457  0.2706  0.4403 -0.2551
18759THY    HM156292   7.340   6.925   3.401 -0.3227 -0.4000 -1.1345
18759THY    HM256293   7.179   6.978   3.381  0.3759  0.6944  0.3947
18759THY    HM356294   7.220   6.833   3.476  0.4853 -0.8339 -0.5635
18759THY    CA656295   7.279   6.929   3.699 -0.4706 -0.2649 -0.5152
18759THY    HA656296   7.307   6.825   3.700  1.6061  0.3548  0.0009
18760THY      O56297   6.734   4.782   5.296  0.2287  0.2832  0.2572
18760THY     HO56298   6.763   4.698   5.256 -0.6460 -1.2344  0.6486
18760THY    CA156299   6.849   4.828   5.354  0.2194 -0.4641 -0.6569
18760THY    CA256300   6.859   4.957   5.401 -0.5616 -0.4189 -0.3043
18760THY    CP156301   6.733   5.052   5.406 -0.2546  0.3647 -0.0180
18760THY    HP156302   6.648   4.988   5.380 -1.0755  1.1458  0.7266
18760THY    CP256303   6.739   5.169   5.305 -0.5553  0.8978  0.0389
18760THY    HP256304   6.831   5.228   5.298 -0.2631 -3.2223 -0.5833
18760THY    HP356305   6.667   5.249   5.323 -0.6200  0.4418  0.0910
18760THY    HP456306   6.734   5.124   5.205  0.5353  0.6675  0.4045
18760THY    CP356307   6.707   5.107   5.546  0.5980 -0.0976 -0.0874
18760THY    HP556308   6.728   5.032   5.623  2.4760 -0.3936  0.0818
18760THY    HP656309   6.607   5.150   5.553  1.5757 -3.1789  3.1844
18760THY    HP756310   6.784   5.185   5.550  3.2426 -2.9404 -2.2911
18760THY    CA356311   6.986   5.006   5.451  0.1737  0.2482  0.1593
18760THY    HA356312   6.994   5.107   5.489  0.9712  0.6672 -0.0525
18760THY    CA456313   7.089   4.920   5.467  0.4426 -0.2891 -0.3627
18760THY    HA456314   7.185   4.953   5.506 -0.2231  0.7606  0.4275
18760THY    CA556315   7.072   4.786   5.434  0.5049  0.5438 -0.1140
18760THY    CM156316   7.175   4.680   5.473  0.3498  0.2474 -0.1916
18760THY    HM156317   7.214   4.615   5.394 -0.5515  0.7087 -1.3273
18760THY    HM256318   7.136   4.612   5.550 -2.4753  0.1241  1.1529
18760THY    HM356319   7.253   4.736   5.526  1.4567 -0.9790 -0.5303
18760THY    CA656320   6.954   4.741   5.384  0.0473  0.2213 -0.2836
18760THY    HA656321   6.942   4.638   5.352 -2.1402 -0.8182  0.2245
18761THY      O56322   1.272   3.622   2.689  0.4934 -0.3765  0.5152
18761THY     HO56323   1.185   3.582   2.675 -0.4237  2.5696  1.2166
18761THY    CA156324   1.246   3.740   2.744  0.1155  0.1105  0.0576
18761THY    CA256325   1.349   3.814   2.806 -0.1640  0.6304 -0.1191
18761THY    CP156326   1.481   3.752   2.833 -0.3825 -0.2702 -0.8518
18761THY    HP156327   1.507   3.691   2.746 -0.6739 -2.0442  1.3882
18761THY    CP256328   1.487   3.669   2.968 -0.0346  0.4340 -0.1598
18761THY    HP256329   1.581   3.616   2.986 -1.6923  0.0401 -3.4680
18761THY    HP356330   1.405   3.599   2.986 -0.3331 -1.3748 -0.3357
18761THY    HP456331   1.488   3.734   3.056  1.0389 -0.3364  0.9130
18761THY    CP356332   1.606   3.845   2.836 -0.3074  1.0375  0.0548
18761THY    HP556333   1.619   3.915   2.919  1.4402  0.9241 -0.0926
18761THY    HP656334   1.605   3.916   2.752  0.2183  0.2080 -0.8978
18761THY    HP756335   1.702   3.793   2.824 -0.5649  1.5076 -0.5380
18761THY    CA356336   1.321   3.940   2.858  0.0747 -0.6918 -0.8955
18761THY    HA356337   1.389   4.002   2.916 -1.2693  1.3975 -1.2992
18761THY    CA456338   1.184   3.984   2.854 -0.0090  0.0718  0.1899
18761THY    HA456339   1.151   4.075   2.901  2.9025 -0.4498  1.6359
18761THY    CA556340   1.087   3.914   2.777  0.0299  0.5526 -0.9273
18761THY    CM156341   0.948   3.971   2.765 -0.1291  0.4184 -0.0432
18761THY    HM156342   0.880   3.890   2.738  1.7315 -1.8949 -0.9417
18761THY    HM256343   0.956   4.043   2.683  1.6742 -0.8768 -1.6321
18761THY    HM356344   0.917   4.017   2.860 -2.4834  0.0423 -0.7073
18761THY    CA656345   1.114   3.786   2.732  0.0949 -0.0406  1.0813
18761THY    HA656346   1.042   3.726   2.677  0.6026  0.1101  0.3172
18762THY      O56347   6.970   6.820   5.460  0.2095  0.3875 -0.5089
18762THY     HO56348   7.057   6.794   5.497 -0.8099  1.9998 -1.8445
18762THY    CA156349   6.977   6.950   5.433 -0.1854  0.3196 -0.1341
18762THY    CA256350   6.860   7.015   5.379  0.1458  0.1454 -0.3752
18762THY    CP156351   6.739   6.937   5.339 -0.0433  0.9743 -0.5028
18762THY    HP156352   6.746   6.833   5.374  0.2095 -0.3451 -0.9552
18762THY    CP256353   6.732   6.926   5.187 -0.5474 -0.0988  0.0930
18762THY    HP256354   6.824   6.879   5.151  0.2815  1.3401  0.5648
18762THY    HP356355   6.698   7.022   5.145 -0.0890  2.1613  1.3118
18762THY    HP456356   6.662   6.848   5.157  0.1813 -1.7967  0.0287
18762THY    CP356357   6.607   6.981   5.394  0.4451  0.8892  0.7261
18762THY    HP556358   6.616   6.972   5.502 -0.1570  0.7804 -2.2556
18762THY    HP656359   6.524   6.917   5.363  0.5937 -1.1060  1.4275
18762THY    HP756360   6.584   7.079   5.350 -1.1046  1.5844  0.6964
18762THY    CA356361   6.862   7.152   5.354 -0.1538 -0.1478  0.1856
18762THY    HA356362   6.768   7.197   5.323 -0.0706 -1.1115 -0.2747
18762THY    CA456363   6.987   7.221   5.370  0.5957 -0.6133  0.2579
18762THY    HA456364   6.983   7.329   5.363  2.0800 -2.0985  0.2494
18762THY    CA556365   7.102   7.156   5.421 -0.3088 -0.1767  0.6395
18762THY    CM156366   7.233   7.231   5.444 -0.3529  1.1058 -0.0293
18762THY    HM156367   7.226   7.249   5.551  0.2703  1.3755 -1.3083
18762THY    HM256368   7.239   7.328   5.394 -0.9046  1.3750  0.1427
18762THY    HM356369   7.322   7.171   5.421 -0.8989 -0.3743 -0.3116
18762THY    CA656370   7.092   7.022   5.457 -0.3307 -0.0926 -0.5969
18762THY    HA656371   7.180   6.974   5.499  2.0038 -2.9110  0.8909
18763THY      O56372   8.092   3.983   6.681 -0.1823  0.2900 -0.5690
18763THY     HO56373   8.122   4.057   6.735 -1.7599 -1.0719  1.1760
18763THY    CA156374   8.205   3.918   6.647 -0.2959  0.3356  0.9693
18763THY    CA256375   8.197   3.780   6.642  0.5127 -0.5329  0.9837
18763THY    CP156376   8.087   3.696   6.712  0.1898 -0.4831  0.3827
18763THY    HP156377   7.996   3.755   6.729 -0.7206 -4.0192  0.1871
18763THY    CP256378   8.135   3.646   6.839 -0.3921 -0.6351  0.3548
18763THY    HP256379   8.235   3.604   6.822  0.0367  0.0375  1.0735
18763THY    HP356380   8.076   3.563   6.880 -0.5874  2.8624  2.0319
18763THY    HP456381   8.123   3.722   6.917 -2.3293 -1.2873  0.7623
18763THY    CP356382   8.031   3.577   6.631 -0.0084  0.5070  0.0515
18763THY    HP556383   8.080   3.480   6.642  0.1176 -0.5217 -0.0137
18763THY    HP656384   8.027   3.594   6.522 -0.5228 -0.0405 -2.9349
18763THY    HP756385   7.925   3.562   6.654 -0.7371 -1.5500  1.4965
18763THY    CA356386   8.293   3.706   6.571 -0.6630 -0.5709 -0.7250
18763THY    HA356387   8.285   3.597   6.570  0.4462  1.3803 -0.8728
18763THY    CA456388   8.411   3.773   6.524  0.3292  0.7078  0.5072
18763THY    HA456389   8.488   3.714   6.474 -0.5205 -1.3547  1.0460
18763THY    CA556390   8.422   3.910   6.537  0.7575  0.9520 -0.0650
18763THY    CM156391   8.550   3.988   6.493 -0.4629 -1.4144  0.1846
18763THY    HM156392   8.525   4.092   6.469 -0.7273  1.2911  0.8057
18763THY    HM256393   8.612   3.940   6.416 -0.1336 -1.9582  1.4561
18763THY    HM356394   8.608   3.992   6.586 -0.1774 -1.4710 -1.6076
18763THY    CA656395   8.320   3.979   6.599 -0.1865  0.5617 -0.2909
18763THY    HA656396   8.335   4.086   6.609 -0.9827 -1.1098 -0.0086
18764THY      O56397   4.661   8.860   6.564  0.2388  0.9868  0.3220
18764THY     HO56398   4.639   8.944   6.521 -0.1106  2.3542  0.9602
18764THY    CA156399   4.779   8.823   6.508 -0.0070 -0.0784  0.9646
18764THY    CA256400   4.849   8.706   6.549  0.3253  0.2625 -0.5917
18764THY    CP156401   4.802   8.611   6.651  0.3359 -1.0677 -0.0005
18764THY    HP156402   4.736   8.665   6.720 -0.0205 -2.0360  0.8264
18764THY    CP256403   4.913   8.548   6.742  0.2773 -0.1260  0.5484
18764THY    HP256404   4.967   8.462   6.701  0.4791  0.7245  0.2544
18764THY    HP356405   4.879   8.506   6.838  2.1678 -0.2903 -1.5533
18764THY    HP456406   4.981   8.627   6.775  1.0334 -1.3836  0.4418
18764THY    CP356407   4.720   8.498   6.583 -0.6577  0.3111 -0.7876
18764THY    HP556408   4.641   8.525   6.513 -0.2384 -0.5808 -1.8003
18764THY    HP656409   4.684   8.427   6.659  2.3320 -0.0817 -2.9306
18764THY    HP756410   4.797   8.445   6.525 -1.5128 -2.2482  0.6320
18764THY    CA356411   4.970   8.681   6.482 -0.1696  0.3864  0.5446
18764THY    HA356412   5.027   8.600   6.525  1.4414  3.0318  2.9097
18764THY    CA456413   5.011   8.764   6.375 -0.6262  0.0113 -0.1359
18764THY    HA456414   5.109   8.752   6.331 -0.9203 -0.2298 -1.9332
18764THY    CA556415   4.927   8.867   6.325  0.4837 -0.2868 -0.5505
18764THY    CM156416   4.963   8.953   6.208 -0.1096  0.2916  0.6401
18764THY    HM156417   5.039   8.902   6.147 -0.7263 -0.1631  0.2483
18764THY    HM256418   4.995   9.054   6.238 -0.6095 -1.7538  1.4542
18764THY    HM356419   4.878   8.977   6.142  1.0142 -2.3488 -2.0216
18764THY    CA656420   4.810   8.891   6.394  0.8652  0.1488 -0.7722
18764THY    HA656421   4.750   8.976   6.363  1.7623 -0.6928 -0.4336
18765THY      O56422   3.921   8.755   5.592 -0.0830 -0.8155  0.4008
18765THY     HO56423   3.945   8.720   5.679 -2.1139 -0.6442 -0.7456
18765THY    CA156424   4.016   8.689   5.522  0.2698  1.0073 -0.5178
18765THY    CA256425   4.013   8.689   5.382 -0.3457 -0.0772 -0.4518
18765THY    CP156426   3.900   8.757   5.293  0.1337 -0.4131 -0.1658
18765THY    HP156427   3.826   8.803   5.359  2.4237  1.7824  0.6221
18765THY    CP256428   3.843   8.646   5.199  0.5179 -0.1622 -0.6132
18765THY    HP256429   3.759   8.692   5.146  0.9739  0.6916  1.3316
18765THY    HP356430   3.809   8.561   5.260 -3.5416 -1.1754  0.0938
18765THY    HP456431   3.911   8.608   5.122 -0.3017 -0.1108 -2.2358
18765THY    CP356432   3.959   8.878   5.229  0.6610  0.0149 -0.8761
18765THY    HP556433   4.050   8.870   5.170  0.3710 -0.5933  0.1793
18765THY    HP656434   3.963   8.961   5.300 -2.5687  0.7695 -1.2041
18765THY    HP756435   3.882   8.906   5.156  0.3722  0.8658  0.6952
18765THY    CA356436   4.111   8.602   5.322 -0.2643  0.2589 -0.1319
18765THY    HA356437   4.117   8.591   5.214  0.2201  0.3784 -1.2498
18765THY    CA456438   4.211   8.527   5.390  0.2116  0.0121 -0.1117
18765THY    HA456439   4.285   8.459   5.348  1.6233 -1.8357  2.4030
18765THY    CA556440   4.201   8.533   5.520  0.1957 -0.4226 -0.1853
18765THY    CM156441   4.303   8.465   5.606  0.6180 -0.6278 -0.1587
18765THY    HM156442   4.256   8.455   5.704 -2.6937 -1.8799  1.5407
18765THY    HM256443   4.400   8.514   5.616  0.6989  0.4371 -0.5059
18765THY    HM356444   4.331   8.366   5.566  3.4864  1.2597 -0.2283
18765THY    CA656445   4.101   8.602   5.587 -0.9771  0.2204 -0.2580
18765THY    HA656446   4.111   8.602   5.695  1.0464  0.0971 -1.9152
18766THY      O56447   8.714   2.510   3.766  0.1247  0.8113  0.2895
18766THY     HO56448   8.647   2.576   3.790  1.5934  2.9041  1.1558
18766THY    CA156449   8.809   2.591   3.710  0.2775  0.6426  0.5674
18766THY    CA256450   8.929   2.532   3.660  0.1921 -0.6447 -0.2906
18766THY    CP156451   8.971   2.384   3.699  1.1213 -0.1501  0.1700
18766THY    HP156452   8.895   2.346   3.768 -0.5826 -1.6556  0.7259
18766THY    CP256453   9.107   2.374   3.771  0.0579 -0.3328  0.6008
18766THY    HP256454   9.192   2.409   3.711  0.8741  1.4851  1.8963
18766THY    HP356455   9.120   2.268   3.794 -0.3638 -2.1741  0.1094
18766THY    HP456456   9.116   2.425   3.867  2.3770  1.4693 -2.7608
18766THY    CP356457   8.966   2.297   3.575  0.1749  0.5952 -0.6152
18766THY    HP556458   8.992   2.191   3.582  0.1494 -0.7801 -0.7358
18766THY    HP656459   9.031   2.342   3.498  2.3796  2.5149 -0.3194
18766THY    HP756460   8.866   2.302   3.531  0.0195  1.0585  0.8434
18766THY    CA356461   9.013   2.615   3.576 -0.0643  0.6169 -0.1368
18766THY    HA356462   9.112   2.588   3.541  0.1126  1.3329 -0.4425
18766THY    CA456463   8.983   2.750   3.555  0.2611  0.0862  0.1621
18766THY    HA456464   9.057   2.815   3.508 -1.0106  1.2830  2.6420
18766THY    CA556465   8.860   2.806   3.596 -0.5604  0.2354  0.6877
18766THY    CM156466   8.833   2.945   3.577 -0.0407  0.1347 -0.2743
18766THY    HM156467   8.736   2.973   3.618  0.0716 -0.1583  0.5992
18766THY    HM256468   8.820   2.969   3.471 -0.7173  0.2997  0.1133
18766THY    HM356469   8.908   3.006   3.629 -0.1030  2.1569 -1.8163
18766THY    CA656470   8.777   2.722   3.679  0.2043 -0.1309 -0.6523
18766THY    HA656471   8.686   2.766   3.717 -0.8145 -0.6653 -2.2184
18767THY      O56472   6.567   7.582   7.823  0.0748  0.2960  0.5050
18767THY     HO56473   6.536   7.670   7.853 -0.8229  0.2689  0.2106
18767THY    CA156474   6.705   7.581   7.859 -0.2678  0.1926  0.5436
18767THY    CA256475   6.792   7.475   7.823  0.5385  0.3206  0.6987
18767THY    CP156476   6.742   7.344   7.749 -0.0172 -0.7291 -0.2494
18767THY    HP156477   6.634   7.337   7.765 -0.1330 -0.6042  1.4093
18767THY    CP256478   6.807   7.209   7.797 -0.1172  0.2632  0.0153
18767THY    HP256479   6.900   7.181   7.748 -1.0133 -0.6101 -1.5689
18767THY    HP356480   6.735   7.135   7.760  0.0896 -3.3476  1.4496
18767THY    HP456481   6.812   7.207   7.907 -0.9279  0.3077 -2.1707
18767THY    CP356482   6.761   7.362   7.601  0.3143 -0.1623 -0.4565
18767THY    HP556483   6.757   7.467   7.569  0.2464  0.6185 -0.2126
18767THY    HP656484   6.689   7.299   7.548  0.9733  0.5366 -1.8213
18767THY    HP756485   6.864   7.331   7.580  0.4072 -0.2824 -0.0729
18767THY    CA356486   6.923   7.484   7.866 -0.5614  0.0803  0.6825
18767THY    HA356487   6.994   7.405   7.843 -1.1165  0.7187 -0.0127
18767THY    CA456488   6.961   7.593   7.940  0.1292  0.5178 -0.3079
18767THY    HA456489   7.059   7.595   7.986 -0.3334  1.5152 -0.3827
18767THY    CA556490   6.873   7.695   7.971  0.3444 -0.2728  0.5787
18767THY    CM156491   6.914   7.812   8.063 -0.2697  0.0714  0.3977
18767THY    HM156492   6.967   7.887   8.003  0.3471  0.3480  0.1919
18767THY    HM256493   6.978   7.780   8.146 -0.6532 -0.0211 -0.6562
18767THY    HM356494   6.836   7.851   8.129 -1.4268 -1.4568  0.7409
18767THY    CA656495   6.751   7.695   7.915  0.2414  0.2329 -0.6513
18767THY    HA656496   6.682   7.773   7.947 -1.5357 -0.0490 -2.0193
18768THY      O56497   5.317   3.863   7.125 -0.2521  0.1406  0.1026
18768THY     HO56498   5.310   3.820   7.212 -1.3591 -0.8705 -1.9325
18768THY    CA156499   5.443   3.887   7.094 -0.3328 -0.1374  0.0239
18768THY    CA256500   5.488   3.926   6.966  0.1289 -0.2374  0.7877
18768THY    CP156501   5.383   3.948   6.850 -0.2119 -0.1970  0.1861
18768THY    HP156502   5.294   3.885   6.858 -0.9954  1.4173  1.4306
18768THY    CP256503   5.434   3.909   6.706  0.0022  1.4692 -0.0374
18768THY    HP256504   5.471   3.806   6.707  2.4974  0.1571  0.7737
18768THY    HP356505   5.504   3.985   6.669  0.2005  1.7554 -0.0811
18768THY    HP456506   5.354   3.913   6.631  1.9658 -0.7551 -0.4287
18768THY    CP356507   5.331   4.092   6.843  0.5290  0.0383  0.2800
18768THY    HP556508   5.400   4.170   6.806 -0.1928 -1.1101  0.4045
18768THY    HP656509   5.302   4.131   6.941 -1.3527 -0.6885  0.8210
18768THY    HP756510   5.234   4.079   6.793  0.1348  1.0951 -0.9943
18768THY    CA356511   5.625   3.933   6.937 -0.4675  0.7534  0.3376
18768THY    HA356512   5.668   3.953   6.839  1.3586  1.0261 -1.8551
18768THY    CA456513   5.715   3.920   7.039 -0.2555  0.3652 -0.0854
18768THY    HA456514   5.822   3.922   7.019 -0.6521 -2.0243  0.4093
18768THY    CA556515   5.672   3.901   7.172 -0.4700  0.2583 -0.5760
18768THY    CM156516   5.786   3.889   7.273 -0.1275 -0.0515  0.4329
18768THY    HM156517   5.884   3.900   7.225 -0.0071  0.3055  1.0042
18768THY    HM256518   5.788   3.794   7.327  0.2697 -0.5590  0.1529
18768THY    HM356519   5.784   3.964   7.354  1.1812  1.4327 -1.0358
18768THY    CA656520   5.535   3.889   7.199 -0.0678  0.0774  0.4638
18768THY    HA656521   5.504   3.867   7.301  1.1403  0.7886  1.9485
18769THY      O56522   7.373   5.472   6.913 -0.0311 -0.1691 -0.0350
18769THY     HO56523   7.333   5.383   6.905 -1.3587  1.2983  0.3856
18769THY    CA156524   7.408   5.520   6.792 -0.2531  0.0489 -0.4290
18769THY    CA256525   7.479   5.645   6.782 -0.8317  0.5928 -0.2481
18769THY    CP156526   7.525   5.718   6.909  0.6590 -0.1861  0.3244
18769THY    HP156527   7.592   5.655   6.967 -0.6374 -0.4825 -1.4053
18769THY    CP256528   7.406   5.768   6.991 -0.1222 -0.4365  0.2165
18769THY    HP256529   7.433   5.769   7.097  1.8508 -0.9027 -0.4051
18769THY    HP356530   7.326   5.694   6.979  0.2213  0.6773 -0.3509
18769THY    HP456531   7.371   5.870   6.971  0.1537  0.9159  0.6021
18769THY    CP356532   7.609   5.841   6.886 -0.7066 -0.4912 -0.0792
18769THY    HP556533   7.557   5.927   6.842 -0.2620  1.4054  1.2347
18769THY    HP656534   7.700   5.822   6.828  0.6369  0.7532  2.1181
18769THY    HP756535   7.649   5.875   6.982  0.7467 -1.1391  0.1259
18769THY    CA356536   7.506   5.699   6.655 -0.1594 -0.2393 -0.0143
18769THY    HA356537   7.551   5.796   6.640  0.5132  2.4218  0.1716
18769THY    CA456538   7.472   5.620   6.546 -0.3126  0.4238  0.4112
18769THY    HA456539   7.509   5.657   6.451 -0.6184  0.3053  0.4177
18769THY    CA556540   7.417   5.493   6.555 -0.0840  0.6148 -0.2878
18769THY    CM156541   7.388   5.408   6.436 -0.2903  0.2887  0.5962
18769THY    HM156542   7.297   5.427   6.378  0.6023 -2.0498 -1.5958
18769THY    HM256543   7.386   5.305   6.472  1.0615  1.5535  0.9861
18769THY    HM356544   7.473   5.412   6.366  1.4000  2.1613 -0.4896
18769THY    CA656545   7.387   5.439   6.678  0.3913 -0.2167  0.8347
18769THY    HA656546   7.335   5.345   6.689  1.8940  0.5970  0.0567
18770THY      O56547   5.577   7.963   1.690 -0.1639 -0.5583 -1.1197
18770THY     HO56548   5.658   7.911   1.706 -0.3127  1.2663 -0.8647
18770THY    CA156549   5.523   7.974   1.816  0.0866 -0.2479  0.0972
18770THY    CA256550   5.392   8.036   1.827 -0.3741 -0.5197  0.9667
18770THY    CP156551   5.321   8.096   1.709  0.1692  0.0235  0.3279
18770THY    HP156552   5.363   8.060   1.615 -0.6184  0.1998 -1.1287
18770THY    CP256553   5.330   8.244   1.714 -0.0356  0.5037 -0.0047
18770THY    HP256554   5.430   8.287   1.705 -0.5804 -0.2106  1.1799
18770THY    HP356555   5.288   8.277   1.809  2.3966  1.4099  0.6749
18770THY    HP456556   5.278   8.290   1.629 -0.6912  1.3022  0.7626
18770THY    CP356557   5.177   8.047   1.695  0.7119  0.4576 -0.1826
18770THY    HP556558   5.168   7.941   1.668 -1.9075 -2.8829  0.7133
18770THY    HP656559   5.128   8.108   1.618 -0.8884  0.8761 -0.8789
18770THY    HP756560   5.119   8.066   1.787 -0.6098 -0.5232  0.7031
18770THY    CA356561   5.338   8.045   1.957 -0.1814 -0.0349 -0.5349
18770THY    HA356562   5.255   8.112   1.981  2.8960  2.8375  2.6843
18770THY    CA456563   5.415   7.998   2.071  0.0510  0.0141 -0.0551
18770THY    HA456564   5.372   8.003   2.170  1.0253  0.6426 -2.6589
18770THY    CA556565   5.537   7.925   2.056  0.6600 -0.0718 -0.3168
18770THY    CM156566   5.612   7.872   2.182 -0.2448 -0.2354 -0.6894
18770THY    HM156567   5.573   7.915   2.275 -1.1045 -1.4672  1.3494
18770THY    HM256568   5.722   7.879   2.178  0.1187  0.5845 -4.2762
18770THY    HM356569   5.596   7.765   2.194 -0.2978  0.0394 -0.6510
18770THY    CA656570   5.592   7.917   1.928 -0.2579 -0.3132 -0.3491
18770THY    HA656571   5.695   7.886   1.923  0.4514 -0.3622  1.8534
18771THY      O56572   3.255   4.597   5.374  0.1304  0.0654  0.4302
18771THY     HO56573   3.205   4.639   5.302 -0.0567 -1.4321 -2.1375
18771THY    CA156574   3.384   4.598   5.353  0.7301 -0.1840  0.6582
18771THY    CA256575   3.481   4.536   5.440 -0.5876  0.0217 -0.3338
18771THY    CP156576   3.442   4.465   5.571 -0.2044  0.0576 -0.6158
18771THY    HP156577   3.343   4.497   5.606  0.2055  0.8428 -0.1876
18771THY    CP256578   3.552   4.498   5.679  0.1346  0.1060 -0.3487
18771THY    HP256579   3.565   4.607   5.679 -1.1583  0.9292 -0.1685
18771THY    HP356580   3.653   4.461   5.659  0.6612  0.9945  0.5568
18771THY    HP456581   3.531   4.451   5.776  0.9601  0.4328 -0.0682
18771THY    CP356582   3.432   4.315   5.559  0.6600 -0.4165  0.2804
18771THY    HP556583   3.407   4.270   5.656 -3.0294 -0.7042  1.3693
18771THY    HP656584   3.522   4.276   5.509 -0.2758 -5.0300  3.3335
18771THY    HP756585   3.355   4.287   5.486 -1.2159  1.4803  0.2319
18771THY    CA356586   3.616   4.538   5.399 -0.4699 -0.2999 -0.2861
18771THY    HA356587   3.698   4.493   5.454 -1.2420 -0.5483 -2.1139
18771THY    CA456588   3.644   4.604   5.277 -0.7094 -0.1070 -0.6282
18771THY    HA456589   3.744   4.628   5.245 -0.8759 -1.0421 -1.1580
18771THY    CA556590   3.552   4.672   5.210  0.4736  0.3403 -0.2775
18771THY    CM156591   3.598   4.741   5.086  0.0675  0.0336  0.3571
18771THY    HM156592   3.538   4.826   5.052  2.5236 -1.8479  1.4874
18771THY    HM256593   3.605   4.675   4.999  0.7674  1.1415 -1.0941
18771THY    HM356594   3.699   4.780   5.099  0.0716 -1.7170  1.0217
18771THY    CA656595   3.419   4.666   5.240  0.0398  0.5416  0.1256
18771THY    HA656596   3.345   4.713   5.176 -0.5617  0.5451 -0.8063
18772THY      O56597   4.774   3.251   2.821 -0.5411  0.2398  0.3857
18772THY     HO56598   4.802   3.265   2.913 -0.8310  0.7853 -2.0751
18772THY    CA156599   4.861   3.311   2.741  0.3977  0.1618 -0.5115
18772THY    CA256600   4.851   3.309   2.601 -0.4391  0.1569  0.3932
18772THY    CP156601   4.763   3.217   2.520 -0.4499 -0.1376 -0.3735
18772THY    HP156602   4.688   3.170   2.584 -1.3442 -0.8780  0.0292
18772THY    CP256603   4.844   3.105   2.450 -0.0528 -0.1280 -0.4209
18772THY    HP256604   4.926   3.153   2.396  0.3954 -0.4662 -1.5355
18772THY    HP356605   4.777   3.055   2.380  0.2506 -1.5032  1.0324
18772THY    HP456606   4.882   3.042   2.531  1.3492 -0.1980  0.2929
18772THY    CP356607   4.668   3.284   2.427 -1.2051  0.5872 -0.2020
18772THY    HP556608   4.631   3.376   2.475  1.4272 -1.6391  2.2502
18772THY    HP656609   4.594   3.212   2.391  1.6115 -1.0518 -2.5145
18772THY    HP756610   4.733   3.315   2.344  0.2183  1.9031  0.4570
18772THY    CA356611   4.935   3.395   2.526 -0.2735  0.1879 -0.0770
18772THY    HA356612   4.927   3.396   2.418 -2.7610  0.3087 -0.5962
18772THY    CA456613   5.029   3.474   2.591  0.3680 -0.3040  0.4048
18772THY    HA456614   5.098   3.531   2.530 -0.0308 -0.5105  0.6650
18772THY    CA556615   5.041   3.471   2.725 -0.0083  0.1576  0.5542
18772THY    CM156616   5.145   3.553   2.794  0.2751 -0.4795 -0.5905
18772THY    HM156617   5.100   3.621   2.867  1.6827  1.3903 -1.5386
18772THY    HM256618   5.194   3.630   2.734  2.2132  0.6920 -0.8476
18772THY    HM356619   5.231   3.497   2.834  1.9194  0.9643  2.6609
18772THY    CA656620   4.961   3.391   2.803  0.3063  0.7826  0.3718
18772THY    HA656621   4.968   3.394   2.912 -2.3186  0.9926  2.2374
18773THY      O56622   4.691   6.486   5.704  0.1236  0.0444 -0.0214
18773THY     HO56623   4.770   6.539   5.725  1.9652  0.8131 -2.8542
18773THY    CA156624   4.641   6.554   5.596 -0.2489  0.2078  0.0074
18773THY    CA256625   4.533   6.510   5.523  0.3130  0.1931  0.5528
18773THY    CP156626   4.461   6.385   5.568  0.5210  0.4225  0.1532
18773THY    HP156627   4.492   6.371   5.673  2.7309  0.0844  1.8573
18773THY    CP256628   4.500   6.269   5.474  0.2635  0.6774  0.2068
18773THY    HP256629   4.462   6.171   5.505  0.0157 -1.6718 -0.5076
18773THY    HP356630   4.610   6.269   5.465  0.2806  0.7869 -1.0299
18773THY    HP456631   4.463   6.288   5.373  1.0433  0.7318  2.2804
18773THY    CP356632   4.304   6.400   5.566  0.3515  0.0101 -0.5701
18773THY    HP556633   4.255   6.304   5.583 -0.8903  0.1268  0.0688
18773THY    HP656634   4.272   6.427   5.464  4.1069 -1.1226  0.2306
18773THY    HP756635   4.258   6.474   5.633 -0.5047 -0.1857 -0.9078
18773THY    CA356636   4.493   6.578   5.406 -0.5817 -0.7353  0.1679
18773THY    HA356637   4.413   6.541   5.343 -1.2222  0.1621 -0.0091
18773THY    CA456638   4.552   6.693   5.372 -0.6744 -0.4194 -0.5442
18773THY    HA456639   4.518   6.747   5.285  3.0943 -0.4630  2.1509
18773THY    CA556640   4.648   6.751   5.457 -0.0514 -1.1274 -0.2180
18773THY    CM156641   4.713   6.879   5.427 -0.0267  0.3020  0.5883
18773THY    HM156642   4.805   6.858   5.372 -1.7028 -2.0026 -1.2853
18773THY    HM256643   4.724   6.950   5.510  1.0534  0.5629  0.1417
18773THY    HM356644   4.654   6.929   5.349 -1.9270  1.1462 -0.2144
18773THY    CA656645   4.700   6.680   5.561  0.2976 -0.0956 -0.0500
18773THY    HA656646   4.781   6.720   5.620  0.8355 -0.4316 -0.6253
18774THY      O56647   7.442   2.497   6.063  0.4762 -0.1540 -0.3753
18774THY     HO56648   7.512   2.435   6.089 -0.6674  2.0421 -0.8631
18774THY    CA156649   7.372   2.515   6.176 -0.4767 -0.3961 -0.4813
18774THY    CA256650   7.246   2.572   6.180 -0.2056  0.9589  0.0470
18774THY    CP156651   7.182   2.629   6.055 -0.2034 -0.4633 -0.1142
18774THY    HP156652   7.235   2.574   5.975 -1.5407 -0.8003 -0.9446
18774THY    CP256653   7.210   2.773   6.034 -0.5508 -0.0613 -0.9994
18774THY    HP256654   7.317   2.797   6.022 -1.2431 -3.1184  1.0487
18774THY    HP356655   7.167   2.838   6.111  0.3845  0.8827 -1.4574
18774THY    HP456656   7.158   2.793   5.940  1.8840 -1.7704 -2.1147
18774THY    CP356657   7.026   2.593   6.053 -0.4018  0.0910 -0.5936
18774THY    HP556658   7.001   2.492   6.087  0.5361 -0.7628 -1.1254
18774THY    HP656659   7.004   2.593   5.945  2.0620 -0.4877 -2.3676
18774THY    HP756660   6.969   2.673   6.102  0.6775  1.7888 -0.8195
18774THY    CA356661   7.178   2.581   6.303  0.1174  0.1286  0.3705
18774THY    HA356662   7.077   2.620   6.312  0.8042 -1.4814  2.7850
18774THY    CA456663   7.247   2.539   6.423 -0.2091 -0.0107  0.2937
18774THY    HA456664   7.196   2.538   6.519 -1.1431 -0.3374  3.5732
18774THY    CA556665   7.380   2.492   6.416  0.3885  0.2822 -0.2628
18774THY    CM156666   7.450   2.436   6.539  0.2944  0.4325  1.2596
18774THY    HM156667   7.414   2.494   6.625 -0.5023  1.9686 -1.3716
18774THY    HM256668   7.559   2.438   6.531  0.4172  1.4427 -0.3713
18774THY    HM356669   7.417   2.333   6.555  2.5199 -4.0134 -0.4224
18774THY    CA656670   7.440   2.480   6.292  1.2981 -0.4874 -0.3967
18774THY    HA656671   7.539   2.435   6.295  1.0817  1.8748 -0.8541
18775THY      O56672   4.820   7.212   3.082  0.5547 -0.1497 -0.0769
18775THY     HO56673   4.789   7.150   3.150  0.5352 -0.7808 -0.7638
18775THY    CA156674   4.774   7.163   2.962 -0.1403  0.3228  0.3685
18775THY    CA256675   4.834   7.198   2.840  1.2713  0.4445  0.1337
18775THY    CP156676   4.935   7.311   2.824 -0.4761 -0.1147  0.5122
18775THY    HP156677   4.921   7.378   2.909  1.7507  1.1181 -0.5094
18775THY    CP256678   4.896   7.396   2.709  0.2018  0.7240 -0.1790
18775THY    HP256679   4.895   7.352   2.609  0.5479 -0.6335  2.6857
18775THY    HP356680   4.966   7.480   2.699  0.9146  0.9123 -0.7408
18775THY    HP456681   4.795   7.433   2.729  0.0476  1.7785 -1.1150
18775THY    CP356682   5.082   7.257   2.807  0.5496  0.7104 -0.0783
18775THY    HP556683   5.145   7.345   2.824 -0.0589 -0.0797  0.5321
18775THY    HP656684   5.102   7.214   2.708  0.0176 -1.1067  3.5008
18775THY    HP756685   5.097   7.177   2.881 -0.9014  0.2499 -0.8183
18775THY    CA356686   4.793   7.129   2.722 -0.3245 -0.7234 -0.4139
18775THY    HA356687   4.832   7.154   2.623 -0.7523 -0.8879 -0.3971
18775THY    CA456688   4.684   7.041   2.734 -0.2989 -0.4347  1.1659
18775THY    HA456689   4.653   6.993   2.642 -1.5806  0.1801  0.7855
18775THY    CA556690   4.626   7.003   2.854  0.4372  1.1301 -0.1375
18775THY    CM156691   4.501   6.917   2.856 -0.0063 -0.1578 -0.3505
18775THY    HM156692   4.421   6.961   2.915 -2.6438 -2.0118 -2.3470
18775THY    HM256693   4.522   6.817   2.897  1.7810  0.5782  0.2865
18775THY    HM356694   4.462   6.918   2.753  0.0750 -0.2278 -1.9229
18775THY    CA656695   4.665   7.076   2.969 -0.1567  0.0372  0.0165
18775THY    HA656696   4.620   7.058   3.066  0.6772  0.1476 -1.6509
18776THY      O56697   5.877   8.672   5.122 -0.0432  0.0185 -0.7475
18776THY     HO56698   5.786   8.701   5.104 -0.0789 -0.2750 -1.0305
18776THY    CA156699   5.855   8.562   5.198 -0.6263  0.5130 -0.2747
18776THY    CA256700   5.962   8.504   5.267  0.8206  0.2386  0.3552
18776THY    CP156701   6.105   8.560   5.245  0.6171 -0.9100  0.3809
18776THY    HP156702   6.104   8.666   5.218 -0.7608  2.1976  1.2632
18776THY    CP256703   6.196   8.467   5.153  0.0490 -1.4412 -0.4313
18776THY    HP256704   6.144   8.454   5.058 -0.5577 -1.0114 -1.2878
18776THY    HP356705   6.196   8.364   5.192  2.9045 -2.8856 -1.0835
18776THY    HP456706   6.294   8.509   5.127 -0.3970 -2.5351 -0.0304
18776THY    CP356707   6.157   8.583   5.389  0.2628  0.3891 -0.8874
18776THY    HP556708   6.097   8.662   5.434 -1.0373  0.7100 -2.0241
18776THY    HP656709   6.257   8.629   5.387  0.1694 -0.7911 -0.7051
18776THY    HP756710   6.151   8.499   5.460 -0.1505  0.0069 -1.1844
18776THY    CA356711   5.930   8.397   5.353  0.3456  0.6167 -0.1281
18776THY    HA356712   6.005   8.339   5.406  1.1091  0.3398  0.5964
18776THY    CA456713   5.795   8.352   5.356 -0.5189  0.1356  0.3434
18776THY    HA456714   5.773   8.266   5.419 -0.9563  0.3174  0.5851
18776THY    CA556715   5.696   8.408   5.275  0.3281  0.5847 -0.1140
18776THY    CM156716   5.559   8.349   5.256 -0.2248  0.3312  0.5687
18776THY    HM156717   5.569   8.245   5.222 -0.0826 -0.0340  0.7026
18776THY    HM256718   5.497   8.402   5.183  1.4674  1.1032  3.8534
18776THY    HM356719   5.484   8.359   5.335 -2.4141 -1.6252  0.2922
18776THY    CA656720   5.725   8.521   5.201 -0.0976 -0.1739 -0.6008
18776THY    HA656721   5.647   8.568   5.141 -2.6094  3.7833  0.8100
18777THY      O56722   9.157   3.851   4.587  0.1843 -0.1172 -0.2116
18777THY     HO56723   9.167   3.790   4.512  3.7327  0.4287 -0.5680
18777THY    CA156724   9.026   3.863   4.613 -0.7218  0.0058 -0.1623
18777THY    CA256725   8.976   3.916   4.735 -0.3798  0.2653 -0.6357
18777THY    CP156726   9.072   3.965   4.841  0.3566 -0.1645 -0.0748
18777THY    HP156727   9.177   3.974   4.812  0.3846  0.5011  2.7047
18777THY    CP256728   9.071   3.857   4.953 -0.5619  0.3058 -0.3320
18777THY    HP256729   9.152   3.884   5.022 -0.1009 -0.5919  0.6421
18777THY    HP356730   9.085   3.759   4.906 -1.3377 -1.2471  0.2729
18777THY    HP456731   8.986   3.842   5.022  1.9271  3.9753  0.9717
18777THY    CP356732   9.039   4.097   4.913  0.0650  0.7592 -0.0182
18777THY    HP556733   9.115   4.117   4.989  0.1058 -0.0494  3.6523
18777THY    HP656734   8.941   4.106   4.961  0.5207  1.4980  1.3123
18777THY    HP756735   9.038   4.183   4.846  0.0977  1.6536  0.6872
18777THY    CA356736   8.841   3.921   4.748 -0.5675  0.2065 -0.3636
18777THY    HA356737   8.805   3.953   4.846  1.9358  1.0552  0.0403
18777THY    CA456738   8.753   3.902   4.642  0.0675 -0.3894 -0.2309
18777THY    HA456739   8.649   3.929   4.658 -0.0814 -0.6195 -0.6528
18777THY    CA556740   8.804   3.851   4.524  0.4900 -0.0561  0.5790
18777THY    CM156741   8.714   3.832   4.405 -0.3628  0.0622 -0.1814
18777THY    HM156742   8.611   3.819   4.437 -0.5997  0.5706  2.4341
18777THY    HM256743   8.754   3.768   4.325 -2.3244 -0.6251 -0.5961
18777THY    HM356744   8.714   3.927   4.351  0.0719 -0.0348 -0.2320
18777THY    CA656745   8.940   3.824   4.515 -0.3469  0.3268 -0.1705
18777THY    HA656746   8.986   3.794   4.421  0.5196  1.2492 -1.8861
18778THY      O56747   7.160   1.340   4.195  0.3850  0.5580  0.0083
18778THY     HO56748   7.064   1.357   4.190  0.7067 -2.1152  1.6749
18778THY    CA156749   7.217   1.466   4.215  0.3137  0.3565 -0.7917
18778THY    CA256750   7.357   1.483   4.234 -0.4457  0.0912 -0.4969
18778THY    CP156751   7.454   1.360   4.247 -0.3004 -0.0007  0.0925
18778THY    HP156752   7.410   1.287   4.179 -2.7358  1.2971  0.2270
18778THY    CP256753   7.439   1.298   4.390  0.1528 -0.1911 -0.3574
18778THY    HP256754   7.498   1.207   4.408  0.1631  1.7278 -0.0207
18778THY    HP356755   7.336   1.274   4.419  0.5155  0.4856 -1.1453
18778THY    HP456756   7.474   1.379   4.455 -0.0651 -1.5686  0.8782
18778THY    CP356757   7.602   1.386   4.216 -0.8116 -0.2887 -0.2132
18778THY    HP556758   7.662   1.444   4.288  0.7408 -0.9371 -0.9777
18778THY    HP656759   7.600   1.437   4.119  0.1089  1.7867  4.2853
18778THY    HP756760   7.652   1.290   4.204  1.2624  2.9264  0.3186
18778THY    CA356761   7.407   1.621   4.243 -0.0912 -0.6542 -0.1666
18778THY    HA356762   7.512   1.647   4.244 -0.0587  1.1054 -0.2305
18778THY    CA456763   7.315   1.725   4.249 -0.8239  0.6768 -0.7443
18778THY    HA456764   7.341   1.830   4.256  0.8008 -0.6667 -1.0123
18778THY    CA556765   7.177   1.700   4.231 -0.0500  0.4586 -0.2853
18778THY    CM156766   7.075   1.804   4.252  0.5292 -0.4807  0.5896
18778THY    HM156767   6.988   1.759   4.301  0.6438 -3.2176 -3.1644
18778THY    HM256768   7.059   1.860   4.159  1.8062 -1.1360 -0.0869
18778THY    HM356769   7.128   1.883   4.307  1.8308  1.2185 -1.3435
18778THY    CA656770   7.132   1.573   4.214  0.3479  0.7508 -0.5239
18778THY    HA656771   7.030   1.546   4.191  0.4682  1.0953 -1.2964
18779THY      O56772   3.204   5.467   3.837  0.2470 -0.2098  0.3281
18779THY     HO56773   3.161   5.466   3.750  0.2615 -0.2119 -0.3749
18779THY    CA156774   3.336   5.476   3.819  0.5077 -0.2878 -0.4725
18779THY    CA256775   3.425   5.477   3.926 -0.5763 -0.1957  0.5516
18779THY    CP156776   3.380   5.482   4.077  0.1210 -0.4133 -1.1848
18779THY    HP156777   3.273   5.460   4.085 -1.0561  0.5895  3.5546
18779THY    CP256778   3.412   5.615   4.150  0.2292  0.1058  0.3420
18779THY    HP256779   3.519   5.636   4.162  0.0598  1.2470  0.6229
18779THY    HP356780   3.376   5.604   4.253  0.0681  0.0256  0.0986
18779THY    HP456781   3.365   5.697   4.095 -0.0664 -1.7294 -0.9820
18779THY    CP356782   3.441   5.360   4.148 -0.0648  0.0171 -0.1507
18779THY    HP556783   3.388   5.337   4.242  0.4273 -0.2279 -2.5108
18779THY    HP656784   3.549   5.359   4.166 -0.3151  1.7109 -1.4480
18779THY    HP756785   3.417   5.272   4.088 -3.3758  1.4736 -0.4064
18779THY    CA356786   3.564   5.472   3.896 -0.1287 -0.0224  0.0202
18779THY    HA356787   3.637   5.491   3.973 -2.5311  2.2157  0.8357
18779THY    CA456788   3.602   5.469   3.763  0.5992 -0.8024 -0.1940
18779THY    HA456789   3.707   5.476   3.733  0.4924 -1.2666 -0.5349
18779THY    CA556790   3.512   5.497   3.664  0.0401  0.5488  0.7514
18779THY    CM156791   3.551   5.528   3.524  0.0683  0.1227  0.3075
18779THY    HM156792   3.466   5.574   3.472 -0.3302  1.0025  0.6026
18779THY    HM256793   3.571   5.435   3.471 -3.3392 -0.6797 -0.1022
18779THY    HM356794   3.635   5.598   3.525  0.0576 -0.8580  0.3395
18779THY    CA656795   3.380   5.491   3.691 -0.2312 -0.1620  0.7648
18779THY    HA656796   3.312   5.503   3.607 -0.0780 -0.2744  0.8474
18780THY      O56797   3.347   5.330   4.649  0.6723  0.0052  0.0240
18780THY     HO56798   3.250   5.331   4.646  0.5535  1.0390 -2.4607
18780THY    CA156799   3.379   5.204   4.661 -0.0682  0.6016  0.0946
18780THY    CA256800   3.442   5.154   4.771 -1.0827 -0.0300  0.1111
18780THY    CP156801   3.518   5.235   4.875 -0.2756  0.3562  0.5601
18780THY    HP156802   3.472   5.334   4.877  0.0625 -1.2670  0.7780
18780THY    CP256803   3.672   5.236   4.859 -0.8697  0.5515 -0.6725
18780THY    HP256804   3.729   5.258   4.951 -0.5069  0.8010 -2.5272
18780THY    HP356805   3.693   5.319   4.791 -0.3914  1.4100 -0.0698
18780THY    HP456806   3.701   5.137   4.824 -1.0790 -0.2503 -0.4541
18780THY    CP356807   3.490   5.199   5.021  0.1242 -0.2306 -0.1365
18780THY    HP556808   3.548   5.114   5.060  0.8315  0.9759  0.8638
18780THY    HP656809   3.385   5.189   5.049  1.1347  4.6487  0.0680
18780THY    HP756810   3.509   5.286   5.086 -2.9011  0.5579  0.0385
18780THY    CA356811   3.452   5.010   4.779  0.1380 -0.1023  0.5832
18780THY    HA356812   3.495   4.957   4.863 -1.0451 -0.2254 -0.6346
18780THY    CA456813   3.395   4.927   4.684  0.0420 -0.6566  0.5896
18780THY    HA456814   3.401   4.819   4.694  2.2429  1.7029  0.8410
18780THY    CA556815   3.333   4.976   4.570 -0.0385 -0.2504 -0.4258
18780THY    CM156816   3.272   4.888   4.467  0.6306 -0.3345 -0.0051
18780THY    HM156817   3.287   4.936   4.370  0.4791 -1.5156 -2.2191
18780THY    HM256818   3.163   4.884   4.480  0.6723  0.0481  0.0420
18780THY    HM356819   3.315   4.787   4.474  1.2493  1.4345  0.3242
18780THY    CA656820   3.322   5.116   4.565 -0.0089  0.6649  0.1405
18780THY    HA656821   3.271   5.164   4.482  3.2482 -0.1903  2.4187
18781THY      O56822   3.492   7.941   5.077  0.1066  0.3993  0.6728
18781THY     HO56823   3.432   7.952   5.153  1.1478  1.2867  0.2990
18781THY    CA156824   3.446   8.006   4.967 -0.1047  0.5311 -0.0442
18781THY    CA256825   3.522   8.001   4.850  0.3325  0.0036  0.3616
18781THY    CP156826   3.668   7.950   4.847 -0.1461 -0.2381 -0.6240
18781THY    HP156827   3.709   7.971   4.947 -2.5775  0.5761  0.7122
18781THY    CP256828   3.766   8.038   4.769 -0.1424  0.3723  0.3300
18781THY    HP256829   3.760   8.017   4.662  2.7243  0.2525 -0.3127
18781THY    HP356830   3.874   8.025   4.784  0.4480 -3.7337 -1.1490
18781THY    HP456831   3.741   8.141   4.799 -0.9479 -0.4678  0.3845
18781THY    CP356832   3.688   7.805   4.819  0.3701 -0.1012  0.2265
18781THY    HP556833   3.618   7.744   4.878  0.7589 -1.0203 -1.1781
18781THY    HP656834   3.792   7.774   4.835 -0.1410  1.5519 -0.7956
18781THY    HP756835   3.650   7.783   4.718 -1.1451  0.6149 -0.6036
18781THY    CA356836   3.462   8.049   4.736 -0.3946  0.1909  0.3280
18781THY    HA356837   3.518   8.038   4.643  0.8685  1.1777 -2.5693
18781THY    CA456838   3.328   8.095   4.742 -0.4894  0.4849 -0.4107
18781THY    HA456839   3.282   8.134   4.651 -0.0059  0.9003  1.1802
18781THY    CA556840   3.260   8.112   4.867  0.7824  0.3529 -0.3330
18781THY    CM156841   3.128   8.178   4.871  0.0112 -0.2040 -0.7127
18781THY    HM156842   3.107   8.245   4.787 -2.4316 -0.9400 -2.2770
18781THY    HM256843   3.121   8.243   4.960 -1.5602 -0.1322 -0.9624
18781THY    HM356844   3.050   8.101   4.875  0.5754 -0.4614 -1.3053
18781THY    CA656845   3.320   8.065   4.980 -0.0694  0.1615  0.0640
18781THY    HA656846   3.260   8.050   5.069  0.7084  0.2505 -3.1348
18782THY      O56847   6.405   5.468   6.939 -0.2386  0.4574 -0.1097
18782THY     HO56848   6.358   5.484   6.855 -2.1170  1.4792  0.0834
18782THY    CA156849   6.424   5.347   6.952 -0.1774  0.1547  0.5029
18782THY    CA256850   6.461   5.296   7.074 -0.1080 -0.6643  0.0524
18782THY    CP156851   6.494   5.385   7.193  0.1857 -0.6555 -0.5500
18782THY    HP156852   6.465   5.489   7.177 -2.2667  1.3353 -0.8314
18782THY    CP256853   6.645   5.384   7.219  0.1474  0.5317 -0.3003
18782THY    HP256854   6.671   5.371   7.325 -1.1458  0.7293 -1.6126
18782THY    HP356855   6.683   5.481   7.185  0.6299  3.3112  0.5711
18782THY    HP456856   6.697   5.302   7.167 -1.0085 -1.3618  0.1006
18782THY    CP356857   6.419   5.348   7.322  0.0174 -0.1578  0.9302
18782THY    HP556858   6.425   5.250   7.369 -0.9773  0.5097  1.1748
18782THY    HP656859   6.315   5.344   7.290 -0.3405  1.0906 -1.7859
18782THY    HP756860   6.433   5.425   7.399  0.2894  1.7535 -0.9583
18782THY    CA356861   6.484   5.159   7.094 -0.1773 -0.1205 -0.1070
18782THY    HA356862   6.513   5.122   7.192  0.5327 -0.8620 -1.5824
18782THY    CA456863   6.452   5.069   6.992 -0.0741  0.1019 -0.4726
18782THY    HA456864   6.468   4.963   7.011  2.7572  0.1576 -0.1112
18782THY    CA556865   6.409   5.119   6.866  0.4632  0.2370 -0.6149
18782THY    CM156866   6.381   5.029   6.748  0.1649 -0.0063  0.1627
18782THY    HM156867   6.275   5.001   6.744  0.5380 -0.3168 -1.2896
18782THY    HM256868   6.447   4.943   6.764 -1.0201  1.8014 -0.4788
18782THY    HM356869   6.410   5.069   6.650 -1.3117  0.0211  1.3567
18782THY    CA656870   6.390   5.254   6.850 -0.5807  0.2855 -0.4046
18782THY    HA656871   6.345   5.292   6.759 -0.6332 -0.0440 -1.2301
18783THY      O56872   5.697   5.352   2.865 -0.5009  0.2712  0.7774
18783THY     HO56873   5.633   5.406   2.915 -0.7756  2.0763 -1.0840
18783THY    CA156874   5.816   5.402   2.904  0.0854  0.6854  0.5427
18783THY    CA256875   5.928   5.314   2.909 -0.3426  0.2398  0.0644
18783THY    CP156876   5.906   5.170   2.859  0.5031 -0.0558  0.4835
18783THY    HP156877   5.841   5.172   2.771 -0.4277  0.6105  0.1899
18783THY    CP256878   5.835   5.093   2.975 -0.6323  0.1798  0.3474
18783THY    HP256879   5.760   5.155   3.027 -0.0849 -1.1311  2.1967
18783THY    HP356880   5.901   5.079   3.061 -0.6517  0.1238 -0.1042
18783THY    HP456881   5.788   5.000   2.942 -1.0623  1.5230  0.0721
18783THY    CP356882   6.036   5.095   2.821 -0.0892 -0.2836  0.0548
18783THY    HP556883   6.009   4.991   2.799 -1.5698 -0.5406  0.4667
18783THY    HP656884   6.112   5.096   2.900 -0.0660 -0.3068  0.0886
18783THY    HP756885   6.071   5.136   2.726 -0.0221 -0.8760 -1.3232
18783THY    CA356886   6.057   5.368   2.928  0.4549 -0.3533  0.2351
18783THY    HA356887   6.146   5.307   2.924  1.3468 -0.8959  1.5228
18783THY    CA456888   6.073   5.503   2.948  0.3862  0.3103  0.0147
18783THY    HA456889   6.174   5.542   2.948  1.1242  0.5780 -1.7982
18783THY    CA556890   5.967   5.590   2.933 -0.3807  0.6817 -0.1128
18783THY    CM156891   5.987   5.739   2.953  0.0670 -0.5963  0.5169
18783THY    HM156892   6.026   5.793   2.866  3.6464  0.0374 -0.8063
18783THY    HM256893   6.060   5.754   3.034 -0.9350  0.4519 -0.0997
18783THY    HM356894   5.893   5.785   2.986  1.2511  0.6205  2.1977
18783THY    CA656895   5.840   5.543   2.916  0.2948 -0.2715  0.0816
18783THY    HA656896   5.753   5.609   2.918 -1.9449  1.6737 -2.6971
18784THY      O56897   1.796   1.701   3.387 -0.1286  0.3221 -0.9270
18784THY     HO56898   1.753   1.788   3.398  2.9175 -1.3441  0.9669
18784THY    CA156899   1.865   1.687   3.498  0.6922 -0.2715 -0.1875
18784THY    CA256900   1.984   1.616   3.511  0.1605  0.0385  0.2707
18784THY    CP156901   2.050   1.545   3.399  0.4675 -0.4636 -0.6779
18784THY    HP156902   1.993   1.551   3.305  2.6316 -1.7814  0.4443
18784THY    CP256903   2.085   1.405   3.436 -0.0580 -0.2890 -0.0464
18784THY    HP256904   2.003   1.344   3.476 -1.0126  0.7767  1.8486
18784THY    HP356905   2.168   1.418   3.507 -0.2962 -0.5149  3.8891
18784THY    HP456906   2.117   1.350   3.346  1.0425  0.6217 -0.9583
18784THY    CP356907   2.176   1.621   3.357 -0.1522  0.4741  0.2544
18784THY    HP556908   2.235   1.642   3.447 -1.9109  1.5483  0.7749
18784THY    HP656909   2.146   1.714   3.307  0.6478 -1.0458 -0.2683
18784THY    HP756910   2.245   1.566   3.292 -2.2380 -0.5324 -1.2635
18784THY    CA356911   2.052   1.614   3.644 -0.1027 -0.4223  0.1827
18784THY    HA356912   2.148   1.565   3.661  0.5673  1.1512  1.9195
18784THY    CA456913   1.982   1.667   3.752 -0.1542 -0.7167 -0.9113
18784THY    HA456914   2.016   1.660   3.855 -0.8960 -0.3534  0.4082
18784THY    CA556915   1.863   1.736   3.733 -0.3440 -0.4176 -0.6666
18784THY    CM156916   1.774   1.779   3.849 -0.1242  0.2495  0.2931
18784THY    HM156917   1.686   1.840   3.822 -0.0543 -2.9233 -0.8594
18784THY    HM256918   1.834   1.825   3.928  0.4634  1.2726 -2.1127
18784THY    HM356919   1.739   1.691   3.904 -0.5161  1.7455  1.3296
18784THY    CA656920   1.812   1.759   3.604  0.3817  0.3659 -0.0434
18784THY    HA656921   1.717   1.810   3.597  0.9104 -0.8212  0.8195
18785THY      O56922   3.645   8.702   6.164 -0.1052 -0.6771 -0.2245
18785THY     HO56923   3.668   8.797   6.162  0.6297 -0.6315 -0.3927
18785THY    CA156924   3.576   8.673   6.277 -0.4159  0.0132  0.5614
18785THY    CA256925   3.604   8.557   6.356  0.0876  0.2100  0.0191
18785THY    CP156926   3.712   8.458   6.298  0.0313 -0.1722 -0.0056
18785THY    HP156927   3.720   8.463   6.189  0.5661 -0.0985  1.0582
18785THY    CP256928   3.689   8.312   6.330  0.3614  0.2283 -0.0998
18785THY    HP256929   3.600   8.263   6.290 -0.9384  3.6765 -0.8489
18785THY    HP356930   3.694   8.293   6.438 -0.4809 -0.0565 -2.2902
18785THY    HP456931   3.771   8.247   6.298 -2.4128  0.7420 -4.2248
18785THY    CP356932   3.847   8.497   6.363 -0.1879  0.0810 -0.7153
18785THY    HP556933   3.928   8.480   6.291  1.2656  0.0840  4.4807
18785THY    HP656934   3.852   8.432   6.451 -1.8436 -0.0221 -1.0279
18785THY    HP756935   3.845   8.603   6.393  0.4066  0.9118 -0.9271
18785THY    CA356936   3.525   8.538   6.470 -0.9143  0.1034  0.1537
18785THY    HA356937   3.539   8.452   6.534 -0.2295 -0.9557 -0.5454
18785THY    CA456938   3.423   8.628   6.503 -0.1174  0.2699 -0.1844
18785THY    HA456939   3.373   8.620   6.599  0.9753  0.8145 -0.6405
18785THY    CA556940   3.408   8.745   6.426  0.1189 -0.9027 -0.2434
18785THY    CM156941   3.317   8.840   6.485 -0.1274 -0.4158 -0.2536
18785THY    HM156942   3.349   8.897   6.572 -1.4997  1.1972 -1.8053
18785THY    HM256943   3.236   8.780   6.529  2.3889  1.2574 -2.6659
18785THY    HM356944   3.280   8.904   6.404  1.0371 -1.8655 -1.3330
18785THY    CA656945   3.481   8.760   6.315 -0.0366  0.7065 -0.2709
18785THY    HA656946   3.475   8.852   6.259  1.0807 -0.8151 -1.0815
18786THY      O56947   0.975   4.759   7.245 -0.1234 -0.0939  0.3378
18786THY     HO56948   0.929   4.819   7.307  0.6603  1.1106 -0.2631
18786THY    CA156949   0.908   4.764   7.120  1.0952 -0.0545 -0.7904
18786THY    CA256950   0.960   4.698   7.009 -0.4238  0.1593  0.2380
18786THY    CP156951   1.099   4.638   7.013 -0.6528 -0.2069  0.8317
18786THY    HP156952   1.134   4.608   7.113  0.8623 -1.8139 -3.7510
18786THY    CP256953   1.199   4.743   6.953  0.8010 -0.4613  1.0395
18786THY    HP256954   1.298   4.698   6.955 -0.4400  1.7933 -1.9015
18786THY    HP356955   1.195   4.828   7.022  0.8241 -0.6415  1.1873
18786THY    HP456956   1.171   4.758   6.848 -1.1007 -0.5358 -2.0856
18786THY    CP356957   1.103   4.504   6.945 -0.3596  0.3632 -0.0066
18786THY    HP556958   1.107   4.518   6.836 -1.7281  0.0084 -1.9803
18786THY    HP656959   1.010   4.447   6.960  0.3466  3.0020 -0.6006
18786THY    HP756960   1.190   4.447   6.981 -1.2231  1.7463 -0.4871
18786THY    CA356961   0.885   4.701   6.888  1.0592  0.4561  0.7669
18786THY    HA356962   0.921   4.640   6.806 -1.0376  2.0826 -3.0664
18786THY    CA456963   0.760   4.766   6.887 -0.0599  0.3539 -0.0749
18786THY    HA456964   0.700   4.776   6.797 -0.0441  0.3134 -0.3332
18786THY    CA556965   0.708   4.826   7.011 -0.2040  0.5888 -0.2291
18786THY    CM156966   0.575   4.889   7.018  0.6601  0.3035  0.6422
18786THY    HM156967   0.545   4.928   6.919 -1.7455  0.4741 -0.5871
18786THY    HM256968   0.583   4.972   7.088  1.5498  2.6739 -1.3218
18786THY    HM356969   0.488   4.826   7.041  0.7484  1.0555  0.7874
18786THY    CA656970   0.786   4.828   7.121  0.1830  0.1480 -0.3348
18786THY    HA656971   0.754   4.876   7.213  0.9198  0.4281 -0.3694
18787THY      O56972   1.430   7.240   1.969 -0.5970 -0.6901  0.3453
18787THY     HO56973   1.351   7.202   2.011  0.6865  0.6767 -0.9204
18787THY    CA156974   1.491   7.333   2.041 -0.0595 -0.3072 -0.0363
18787THY    CA256975   1.627   7.327   2.070 -0.3919 -0.1161  0.8418
18787THY    CP156976   1.709   7.195   2.057 -0.5377  0.2113 -0.0897
18787THY    HP156977   1.663   7.142   1.973  0.0542 -0.0671 -0.1700
18787THY    CP256978   1.695   7.117   2.187 -0.1840 -0.3648 -0.3211
18787THY    HP256979   1.730   7.015   2.167  1.2704  1.5069 -0.2577
18787THY    HP356980   1.590   7.111   2.216 -0.2271 -0.1766  1.0066
18787THY    HP456981   1.763   7.167   2.257 -3.0214  0.9717  1.9344
18787THY    CP356982   1.856   7.210   2.026 -0.1917  0.3813 -0.0994
18787THY    HP556983   1.908   7.114   2.022 -0.7244 -0.3476 -0.3659
18787THY    HP656984   1.914   7.277   2.090 -0.4578  2.0699 -1.4125
18787THY    HP756985   1.865   7.261   1.930 -0.9177  0.0952 -0.4952
18787THY    CA356986   1.682   7.432   2.145 -0.5049  0.6797  0.0572
18787THY    HA356987   1.782   7.433   2.188 -0.0581 -0.3236  0.3070
18787THY    CA456988   1.611   7.548   2.160  0.9462 -0.1826 -0.6270
18787THY    HA456989   1.648   7.632   2.219  1.4685  1.0094 -1.6693
18787THY    CA556990   1.477   7.559   2.121  0.1738  0.5134  0.6363
18787THY    CM156991   1.404   7.692   2.151  0.1703  0.0968  0.0359
18787THY    HM156992   1.423   7.744   2.245  0.5525 -1.4792  2.9565
18787THY    HM256993   1.298   7.664   2.151  0.3587  1.2135 -0.7418
18787THY    HM356994   1.422   7.765   2.071 -1.8127 -1.7707 -1.3925
18787THY    CA656995   1.414   7.447   2.065 -0.1908 -0.2552 -0.0997
18787THY    HA656996   1.307   7.445   2.043 -0.2383 -0.4134  1.9860
18788THY      O56997   2.201   5.715   4.769 -0.5815 -0.1849  0.5396
18788THY     HO56998   2.137   5.747   4.835 -0.1333 -0.0743  1.2090
18788THY    CA156999   2.203   5.586   4.787  0.8938  0.2465  0.2632
18788THY    CA257000   2.124   5.500   4.704 -0.0002  0.0453 -0.4068
18788THY    CP157001   2.047   5.548   4.578 -0.6568 -0.5066 -0.6883
18788THY    HP157002   2.001   5.644   4.606 -0.4197 -0.3663 -0.6140
18788THY    CP257003   1.945   5.453   4.508 -0.2212 -0.7676  0.2753
18788THY    HP257004   1.885   5.517   4.442 -1.4978 -0.1150 -0.2224
18788THY    HP357005   1.878   5.415   4.586 -2.6778 -2.5614  0.6774
18788THY    HP457006   1.993   5.373   4.450 -0.1020 -1.6053  0.9310
18788THY    CP357007   2.161   5.593   4.485 -0.4567  0.1325  0.6466
18788THY    HP557008   2.230   5.510   4.466 -3.1184 -0.0972 -1.6719
18788THY    HP657009   2.215   5.682   4.518  1.8452 -1.7214  0.0453
18788THY    HP757010   2.110   5.601   4.388  2.6625 -1.6457  0.2832
18788THY    CA357011   2.136   5.363   4.726 -0.2395  0.3636 -0.3523
18788THY    HA357012   2.090   5.294   4.656  0.1408 -1.5232  1.2281
18788THY    CA457013   2.215   5.316   4.833  0.6304 -0.1711  0.1179
18788THY    HA457014   2.219   5.209   4.851 -1.1853  0.0827  0.0607
18788THY    CA557015   2.295   5.399   4.910 -0.5537  0.0328 -0.2507
18788THY    CM157016   2.382   5.348   5.022  0.7717 -0.3067  0.5990
18788THY    HM157017   2.332   5.299   5.107  1.6567 -0.1841 -0.1269
18788THY    HM257018   2.445   5.427   5.064  3.7849 -0.7175 -1.4095
18788THY    HM357019   2.453   5.276   4.980  1.9380  0.0255  1.5289
18788THY    CA657020   2.277   5.538   4.895  0.2011 -0.0227 -0.4903
18788THY    HA657021   2.334   5.609   4.954  1.2936  1.1349 -2.2515
18789THY      O57022   7.367   5.170   2.456 -0.0688 -0.4332  0.7619
18789THY     HO57023   7.288   5.172   2.513  0.2814  0.0799  0.2418
18789THY    CA157024   7.444   5.275   2.483 -0.1368 -0.4158  0.5663
18789THY    CA257025   7.582   5.271   2.457  0.4439  0.1987 -0.0247
18789THY    CP157026   7.644   5.148   2.400  0.1085  0.1600  0.3616
18789THY    HP157027   7.573   5.081   2.351  1.0776 -0.5728 -0.1617
18789THY    CP257028   7.728   5.068   2.498 -0.6594 -0.2391  1.0142
18789THY    HP257029   7.668   5.018   2.575  3.0847  1.2812 -1.5670
18789THY    HP357030   7.791   5.128   2.564  0.1962  1.1325 -1.2643
18789THY    HP457031   7.789   4.990   2.452  0.2016  0.4596  1.2600
18789THY    CP357032   7.730   5.186   2.282 -0.2268 -0.0095 -0.0996
18789THY    HP557033   7.677   5.256   2.217  2.1656 -0.0993  1.7699
18789THY    HP657034   7.766   5.097   2.229 -0.0995 -0.9086  0.4761
18789THY    HP757035   7.815   5.242   2.322 -0.9354  1.2632  0.1056
18789THY    CA357036   7.661   5.392   2.485 -0.2323  0.0106 -0.5912
18789THY    HA357037   7.764   5.396   2.450 -1.1175 -2.8313 -0.0580
18789THY    CA457038   7.586   5.506   2.534 -0.2620  0.2081  0.1676
18789THY    HA457039   7.641   5.597   2.556 -0.3960 -0.4218  0.4081
18789THY    CA557040   7.450   5.502   2.562 -0.5912 -0.0390 -0.1927
18789THY    CM157041   7.379   5.611   2.614 -0.0391 -0.0960 -0.8845
18789THY    HM157042   7.273   5.595   2.636 -0.0906 -1.0170 -1.9031
18789THY    HM257043   7.384   5.700   2.550 -0.4888 -0.1725 -0.9144
18789THY    HM357044   7.421   5.652   2.707 -0.6589  0.7351 -2.0589
18789THY    CA657045   7.383   5.385   2.544  0.0733  0.2710  0.1013
18789THY    HA657046   7.279   5.375   2.575 -0.2115 -1.2107 -2.2713
18790THY      O57047   6.238   3.104   1.713  0.5129 -0.4150  0.0184
18790THY     HO57048   6.170   3.037   1.699 -1.2191 -1.5377  1.8904
18790THY    CA157049   6.337   3.053   1.795 -0.8842  0.6754  0.5101
18790THY    CA257050   6.461   3.114   1.798  0.3616 -0.7552  0.2670
18790THY    CP157051   6.496   3.219   1.704  0.4850 -0.4858 -0.3505
18790THY    HP157052   6.419   3.228   1.627  0.4790 -0.3995  0.3984
18790THY    CP257053   6.634   3.200   1.645 -0.4486  0.0431  0.3481
18790THY    HP257054   6.648   3.241   1.545  0.2749 -0.6311 -1.4474
18790THY    HP357055   6.636   3.090   1.643 -1.5234  1.2215  0.2789
18790THY    HP457056   6.708   3.230   1.719 -0.4898  0.3439 -0.2739
18790THY    CP357057   6.486   3.352   1.756  0.2110  0.4625 -0.3482
18790THY    HP557058   6.565   3.361   1.832  0.1757  0.4360  0.2173
18790THY    HP657059   6.384   3.356   1.795 -0.4098 -0.8956 -1.9178
18790THY    HP757060   6.521   3.423   1.680 -0.8297  0.7061  0.4416
18790THY    CA357061   6.555   3.078   1.904  0.0578 -0.1014 -0.0828
18790THY    HA357062   6.655   3.120   1.906 -0.0213 -0.7893  0.1588
18790THY    CA457063   6.524   2.964   1.978 -0.0029  0.1236 -0.5638
18790THY    HA457064   6.592   2.935   2.057 -0.7338  1.0760  0.2519
18790THY    CA557065   6.400   2.897   1.966 -0.0419 -0.2075  0.3477
18790THY    CM157066   6.374   2.772   2.052 -0.0646  0.0794 -0.2965
18790THY    HM157067   6.373   2.674   2.003  1.3475  0.0041 -0.2824
18790THY    HM257068   6.274   2.777   2.098  0.8427  2.4303 -2.1723
18790THY    HM357069   6.444   2.777   2.136 -1.5561  1.2935  2.7412
18790THY    CA657070   6.305   2.949   1.880  0.4046  0.3076  0.4385
18790THY    HA657071   6.208   2.901   1.873  0.6432  0.0352 -0.0065
18791THY      O57072   6.782   4.405   7.063  0.1341  0.3595  0.0803
18791THY     HO57073   6.837   4.479   7.093  3.1270  1.7570 -2.4681
18791THY    CA157074   6.868   4.298   7.061 -0.0095 -0.1883  0.5930
18791THY    CA257075   6.821   4.173   7.024 -0.2993  0.3946 -0.1513
18791THY    CP157076   6.676   4.147   6.998  0.2826 -0.1060  0.2818
18791THY    HP157077   6.631   4.211   7.075  1.0512  0.3922  0.2432
18791THY    CP257078   6.625   4.007   7.008  0.5233 -1.0441 -0.3246
18791THY    HP257079   6.639   3.941   6.922 -1.2687 -1.3314 -0.3792
18791THY    HP357080   6.518   4.019   7.027  0.8161 -0.4749  1.7623
18791THY    HP457081   6.669   3.957   7.095  3.0993 -2.2815 -0.3260
18791THY    CP357082   6.624   4.188   6.864 -0.3278  0.1760 -0.0693
18791THY    HP557083   6.647   4.291   6.837  2.0996 -3.6205 -1.3816
18791THY    HP657084   6.516   4.175   6.851 -0.2623 -0.4331 -0.0246
18791THY    HP757085   6.677   4.127   6.790 -1.9033 -1.1400  0.1129
18791THY    CA357086   6.917   4.066   6.995  0.0007 -0.4091  0.3414
18791THY    HA357087   6.888   3.970   6.953  1.5563  1.5272 -1.0868
18791THY    CA457088   7.048   4.084   7.041 -0.2900  0.3836  0.1858
18791THY    HA457089   7.119   4.002   7.030 -2.0769  0.8333 -1.5073
18791THY    CA557090   7.094   4.210   7.082  0.0572 -0.7422 -0.0412
18791THY    CM157091   7.237   4.240   7.120  0.5253  0.4508 -0.2017
18791THY    HM157092   7.255   4.343   7.154 -1.1595 -0.3837  0.4014
18791THY    HM257093   7.305   4.206   7.041  0.4401  0.9768 -1.6614
18791THY    HM357094   7.249   4.185   7.214  4.4662 -0.9581 -2.1462
18791THY    CA657095   7.001   4.312   7.099 -0.4842  0.5300  0.2049
18791THY    HA657096   7.040   4.403   7.144 -2.6189  0.2150  1.3317
18792THY      O57097   6.740   4.869   1.925 -0.2836 -0.1275 -0.0380
18792THY     HO57098   6.821   4.921   1.943 -0.4366 -0.5784  0.3654
18792THY    CA157099   6.666   4.880   2.042  0.6189  0.4659  0.1676
18792THY    CA257100   6.555   4.798   2.069  0.3269  0.5290 -0.2790
18792THY    CP157101   6.513   4.690   1.967  0.0781  0.0799 -0.1578
18792THY    HP157102   6.592   4.700   1.891  1.5735  1.3604 -1.6519
18792THY    CP257103   6.370   4.716   1.904 -0.8569  0.6628 -0.4478
18792THY    HP257104   6.367   4.816   1.858  0.4009 -0.3139 -0.8445
18792THY    HP357105   6.297   4.723   1.986 -2.9927 -1.1707 -0.2614
18792THY    HP457106   6.348   4.641   1.828 -1.2040  1.8878 -1.6212
18792THY    CP357107   6.508   4.548   2.018 -0.7823 -0.1439 -0.1640
18792THY    HP557108   6.433   4.541   2.098 -0.7866 -0.2842 -2.1880
18792THY    HP657109   6.600   4.513   2.066 -0.8780 -0.5498 -0.9987
18792THY    HP757110   6.493   4.475   1.938 -0.8424  0.2629 -0.6028
18792THY    CA357111   6.494   4.809   2.193  0.3088 -0.2981 -0.4895
18792THY    HA357112   6.409   4.746   2.218 -1.7041 -2.2472  1.2626
18792THY    CA457113   6.538   4.916   2.275  0.5288  0.1193 -0.5232
18792THY    HA457114   6.474   4.934   2.362 -0.4928 -1.0794  2.1021
18792THY    CA557115   6.645   5.005   2.249 -0.2585  0.2655 -0.4664
18792THY    CM157116   6.673   5.127   2.326  0.0419 -0.1048 -0.1290
18792THY    HM157117   6.619   5.212   2.282  0.1939  2.4699  1.4189
18792THY    HM257118   6.780   5.146   2.337 -0.2852  2.5283  0.5904
18792THY    HM357119   6.638   5.125   2.430  1.4964  0.4112 -2.8795
18792THY    CA657120   6.705   4.987   2.125  0.1579 -0.7440  0.1239
18792THY    HA657121   6.786   5.052   2.094 -2.0860 -1.6387  2.6945
18793THY      O57122   3.252   8.527   4.651 -0.2339  0.5288 -0.6220
18793THY     HO57123   3.299   8.546   4.734 -0.3397  0.6764 -1.0007
18793THY    CA157124   3.317   8.596   4.548 -0.4887 -0.0835  0.5237
18793THY    CA257125   3.258   8.710   4.492  0.6506 -0.5933  0.6471
18793THY    CP157126   3.121   8.754   4.544  0.3670 -0.3061  0.7362
18793THY    HP157127   3.064   8.676   4.594  0.6942 -0.2556  0.5299
18793THY    CP257128   3.024   8.793   4.433  0.6033 -0.4683 -0.1835
18793THY    HP257129   2.926   8.822   4.472  0.3861  0.4113 -1.9716
18793THY    HP357130   3.003   8.708   4.367  0.5688  1.0483 -1.3976
18793THY    HP457131   3.070   8.874   4.375  1.2830 -2.4807 -1.9113
18793THY    CP357132   3.126   8.864   4.652 -0.4450  0.4060 -0.0781
18793THY    HP557133   3.177   8.820   4.738 -1.9382 -0.5810 -4.1309
18793THY    HP657134   3.026   8.894   4.684 -0.9426 -0.6871 -0.4992
18793THY    HP757135   3.176   8.952   4.610 -0.2576  0.9149  0.0603
18793THY    CA357136   3.329   8.775   4.394 -0.8135 -0.2526 -0.5131
18793THY    HA357137   3.282   8.855   4.337 -2.0083  0.8169 -0.4393
18793THY    CA457138   3.445   8.714   4.343 -0.5100  0.2452 -0.1112
18793THY    HA457139   3.491   8.754   4.253  0.5934  0.3470 -1.0818
18793THY    CA557140   3.499   8.599   4.395 -0.4122  0.5889 -0.1115
18793THY    CM157141   3.614   8.518   4.323 -0.3564  0.1724 -0.2717
18793THY    HM157142   3.599   8.509   4.214 -1.4265  0.3044 -0.2158
18793THY    HM257143   3.614   8.414   4.357 -0.0103 -2.7089 -1.3217
18793THY    HM357144   3.711   8.561   4.350  0.4671 -0.7983 -1.4338
18793THY    CA657145   3.436   8.539   4.503  0.3095 -0.3130  0.1457
18793THY    HA657146   3.463   8.445   4.549 -1.9181  0.4535 -0.1734
18794THY      O57147   2.104   8.505   3.153 -0.5562 -0.1998  0.0810
18794THY     HO57148   2.032   8.518   3.089 -1.2531  0.8854  2.1177
18794THY    CA157149   2.189   8.607   3.134 -0.5071 -0.4082  0.1121
18794THY    CA257150   2.329   8.586   3.153  0.9664 -0.0740 -0.8765
18794THY    CP157151   2.397   8.458   3.203 -0.3912  0.7560 -0.0692
18794THY    HP157152   2.317   8.388   3.231 -0.1809  1.8589  0.1125
18794THY    CP257153   2.487   8.474   3.335  0.2219 -0.2289 -0.2862
18794THY    HP257154   2.545   8.567   3.342  0.3488 -0.3293 -0.3587
18794THY    HP357155   2.567   8.400   3.339 -0.4376  0.0804 -0.9954
18794THY    HP457156   2.417   8.468   3.419 -0.8166 -0.7927  2.3632
18794THY    CP357157   2.496   8.398   3.097 -0.2809  0.1858  0.6020
18794THY    HP557158   2.449   8.384   3.000  1.6939 -0.8632  0.9427
18794THY    HP657159   2.543   8.305   3.130  0.7428  0.3817  1.1696
18794THY    HP757160   2.579   8.470   3.098  2.9402  3.8884 -2.6179
18794THY    CA357161   2.408   8.698   3.128  0.3331 -0.2358 -0.3292
18794THY    HA357162   2.516   8.692   3.130  0.4125  0.2129  0.9843
18794THY    CA457163   2.354   8.819   3.084 -0.2548 -0.2267 -0.3819
18794THY    HA457164   2.415   8.906   3.062  0.5720  1.3158 -0.5275
18794THY    CA557165   2.226   8.830   3.057  0.5029 -0.2322  0.7561
18794THY    CM157166   2.174   8.963   3.006 -0.0074  0.3300 -0.3522
18794THY    HM157167   2.138   8.945   2.904  0.3837 -0.3410  2.2869
18794THY    HM257168   2.252   9.039   2.999 -0.9326  1.3121  0.7295
18794THY    HM357169   2.090   9.001   3.065 -0.6848 -0.5864 -0.3861
18794THY    CA657170   2.141   8.724   3.081  0.2117 -0.2811 -0.5610
18794THY    HA657171   2.034   8.741   3.085  0.7058  2.4621  3.1130
18795THY      O57172   1.754   6.479   5.146  0.6157 -0.3478 -0.3642
18795THY     HO57173   1.723   6.542   5.078 -1.8419 -1.0453 -2.1505
18795THY    CA157174   1.644   6.467   5.221 -0.1477  0.0492 -0.1504
18795THY    CA257175   1.626   6.352   5.306  0.3537  0.3641 -0.0896
18795THY    CP157176   1.733   6.240   5.308 -0.2391 -0.4350  0.8295
18795THY    HP157177   1.833   6.276   5.283 -0.0462  0.5984  1.0316
18795THY    CP257178   1.690   6.130   5.205 -0.1887 -0.2087  0.0502
18795THY    HP257179   1.593   6.083   5.226 -1.0266 -1.8128  0.9881
18795THY    HP357180   1.771   6.055   5.200 -0.6626  0.8628 -0.5659
18795THY    HP457181   1.686   6.183   5.110  1.7366 -1.8815 -2.5482
18795THY    CP357182   1.741   6.177   5.442 -0.1787 -0.2106 -0.2157
18795THY    HP557183   1.657   6.109   5.456 -0.2618  1.2081  0.1514
18795THY    HP657184   1.762   6.259   5.511 -0.1593 -1.4451  0.8467
18795THY    HP757185   1.830   6.112   5.437  1.0385  0.2778  1.3456
18795THY    CA357186   1.503   6.347   5.380 -0.2986 -0.6488 -0.4341
18795THY    HA357187   1.496   6.257   5.441 -1.1837  0.6999  0.5211
18795THY    CA457188   1.414   6.448   5.377 -0.2153  0.0758 -0.4053
18795THY    HA457189   1.331   6.446   5.446  0.1223  0.5411  0.9153
18795THY    CA557190   1.437   6.561   5.291 -0.1756  0.2226 -0.5740
18795THY    CM157191   1.354   6.692   5.292  0.7044 -0.3318  0.1329
18795THY    HM157192   1.414   6.782   5.309  0.0087 -1.1957  0.7770
18795THY    HM257193   1.269   6.684   5.361 -0.2665 -1.3132  1.5436
18795THY    HM357194   1.309   6.714   5.194  1.3301 -0.0752  2.8637
18795THY    CA657195   1.555   6.570   5.216  0.6457 -0.4388 -0.6126
18795THY    HA657196   1.575   6.663   5.164 -0.1738 -1.0911 -0.7873
18796THY      O57197   7.884   3.874   7.601 -0.1250  0.1532 -0.0561
18796THY     HO57198   7.865   3.824   7.682  1.9015  0.2192 -0.7698
18796THY    CA157199   7.845   3.799   7.494 -0.1217 -0.3442 -0.0241
18796THY    CA257200   7.909   3.792   7.372  0.6296 -0.2296 -0.1281
18796THY    CP157201   8.043   3.868   7.351 -0.2278  0.0345  0.1946
18796THY    HP157202   8.077   3.905   7.449  0.4607 -0.3489  0.6143
18796THY    CP257203   8.030   3.992   7.262 -0.0156 -0.0832  0.7624
18796THY    HP257204   8.128   4.041   7.255 -0.2992 -0.6688  1.2659
18796THY    HP357205   7.958   4.060   7.309  0.3478  2.2863 -0.3881
18796THY    HP457206   7.991   3.972   7.161 -0.6707  0.3926 -0.4405
18796THY    CP357207   8.159   3.778   7.307 -0.1774 -0.4836  0.3688
18796THY    HP557208   8.255   3.831   7.313 -0.0670  1.2278  0.0306
18796THY    HP657209   8.145   3.740   7.206 -1.0425  0.3306 -1.5960
18796THY    HP757210   8.161   3.682   7.361  1.7860  1.2508  1.2894
18796THY    CA357211   7.858   3.712   7.270  0.1998  0.4563  0.1865
18796THY    HA357212   7.912   3.713   7.176  1.0917  0.9537  0.5426
18796THY    CA457213   7.731   3.645   7.287 -0.0045 -0.0837 -0.2842
18796THY    HA457214   7.683   3.590   7.206 -0.4043 -1.7037  2.2684
18796THY    CA557215   7.673   3.652   7.410  0.1140 -0.4219 -0.1057
18796THY    CM157216   7.543   3.582   7.437 -1.1551 -0.9284 -0.1929
18796THY    HM157217   7.572   3.476   7.447 -0.5548  1.3406  0.1332
18796THY    HM257218   7.475   3.588   7.352 -1.3950 -0.6781  0.7038
18796THY    HM357219   7.489   3.619   7.524 -2.7990 -2.2562  0.6395
18796THY    CA657220   7.728   3.724   7.519  0.5870  0.7309 -0.4054
18796THY    HA657221   7.688   3.717   7.619 -1.2929  0.0063 -0.6012
18797THY      O57222   6.611   7.979   3.662  0.0459 -0.0585  0.0091
18797THY     HO57223   6.532   7.924   3.669 -0.2226 -1.4920  0.1860
18797THY    CA157224   6.708   7.932   3.741  0.4970 -0.1872  0.1264
18797THY    CA257225   6.833   7.992   3.764  0.2490  0.5461 -0.5244
18797THY    CP157226   6.880   8.116   3.681 -0.1758  0.3289  0.7604
18797THY    HP157227   6.792   8.167   3.639 -0.4221 -0.9472 -0.6494
18797THY    CP257228   6.987   8.082   3.577 -0.1877 -0.4751 -0.2332
18797THY    HP257229   7.067   8.040   3.640 -0.8799  0.5854 -0.0043
18797THY    HP357230   7.023   8.169   3.522 -1.6480 -0.7824  0.2160
18797THY    HP457231   6.943   8.013   3.504  0.2318 -1.0064  0.0610
18797THY    CP357232   6.929   8.226   3.773  0.4263  0.2854 -0.3499
18797THY    HP557233   6.869   8.240   3.864 -2.0982 -1.4089  0.7693
18797THY    HP657234   6.932   8.329   3.736 -0.9555  0.8253 -0.0902
18797THY    HP757235   7.032   8.201   3.800  0.3237  0.1271 -0.9538
18797THY    CA357236   6.920   7.941   3.856  0.0199  0.1046 -0.1180
18797THY    HA357237   7.020   7.975   3.881  0.1998 -2.8405  1.9079
18797THY    CA457238   6.884   7.821   3.923  0.2970 -0.1392  0.1451
18797THY    HA457239   6.962   7.773   3.982 -0.5348  1.5715  0.7985
18797THY    CA557240   6.757   7.773   3.917  0.2330 -0.2754 -0.5797
18797THY    CM157241   6.729   7.642   3.988  0.4862 -0.8250 -0.7953
18797THY    HM157242   6.808   7.570   3.964  1.3340  1.7628 -0.8193
18797THY    HM257243   6.631   7.606   3.954  1.0249 -2.3361 -0.9279
18797THY    HM357244   6.734   7.653   4.097  1.0065 -0.7664 -1.5613
18797THY    CA657245   6.662   7.834   3.831 -0.1914 -0.1918  0.4196
18797THY    HA657246   6.562   7.794   3.813  0.1507 -3.4920  0.7996
18798THY      O57247   5.146   1.404   3.291  0.0552  0.2161 -0.0434
18798THY     HO57248   5.100   1.482   3.256 -1.4000  1.6031 -0.2392
18798THY    CA157249   5.218   1.373   3.181  0.2783  0.2235  0.2312
18798THY    CA257250   5.328   1.281   3.190 -0.0940 -0.2455  0.7116
18798THY    CP157251   5.362   1.207   3.315 -0.5733  0.3192  0.0052
18798THY    HP157252   5.285   1.226   3.390 -0.0466  0.6889  0.7125
18798THY    CP257253   5.490   1.269   3.366  0.5550  0.0790 -0.3043
18798THY    HP257254   5.575   1.267   3.297  1.1703  0.8083  0.2338
18798THY    HP357255   5.528   1.219   3.456 -0.2529 -0.7497 -2.5663
18798THY    HP457256   5.462   1.366   3.409 -1.0453  1.2992 -1.2616
18798THY    CP357257   5.373   1.059   3.309  0.9580  0.3478  0.6531
18798THY    HP557258   5.406   1.011   3.401  0.8049 -1.5149 -3.4591
18798THY    HP657259   5.450   1.020   3.242  0.7041  0.6874 -0.4609
18798THY    HP757260   5.279   1.019   3.269  1.9406 -0.1068 -1.3318
18798THY    CA357261   5.403   1.262   3.076 -0.5464 -0.6937  0.2587
18798THY    HA357262   5.484   1.190   3.077 -1.3359  0.6298 -0.6487
18798THY    CA457263   5.383   1.341   2.961 -0.5945  0.0963  0.6341
18798THY    HA457264   5.440   1.325   2.871 -0.1663  0.7304 -1.7695
18798THY    CA557265   5.279   1.430   2.956 -0.5951  0.4940  0.0042
18798THY    CM157266   5.251   1.501   2.825 -0.3630  0.0848 -0.0588
18798THY    HM157267   5.235   1.430   2.743  1.6264 -1.2210  0.8921
18798THY    HM257268   5.341   1.548   2.784 -0.6296 -1.5485 -0.9125
18798THY    HM357269   5.165   1.568   2.826 -1.4478  1.9913 -1.3722
18798THY    CA657270   5.197   1.448   3.069  0.3256  0.5752 -0.3786
18798THY    HA657271   5.116   1.519   3.061 -0.3403  3.6568 -0.6378
18799THY      O57272   4.382   5.428   6.910 -0.4415 -0.0745 -0.4250
18799THY     HO57273   4.454   5.471   6.860  0.2380  2.5806  1.8726
18799THY    CA157274   4.321   5.348   6.827 -0.3823 -1.2588  0.1767
18799THY    CA257275   4.331   5.212   6.849 -0.6110  0.2649  1.1217
18799THY    CP157276   4.413   5.158   6.960 -1.1267 -0.1466  0.0589
18799THY    HP157277   4.465   5.237   7.016 -0.1572  2.0973 -2.0235
18799THY    CP257278   4.525   5.060   6.915  0.0322 -0.4414 -0.4966
18799THY    HP257279   4.612   5.076   6.980  1.4900 -2.6077  0.7348
18799THY    HP357280   4.557   5.086   6.814  3.4520 -0.2937 -3.4508
18799THY    HP457281   4.474   4.963   6.908 -0.2089 -0.8930 -0.3412
18799THY    CP357282   4.334   5.077   7.058  0.0944  0.2413 -0.0716
18799THY    HP557283   4.402   5.012   7.115  2.3186 -2.2045 -0.0326
18799THY    HP657284   4.270   5.004   7.007 -0.7367 -0.0546  0.8414
18799THY    HP757285   4.266   5.140   7.116 -1.1479 -1.0422 -0.1835
18799THY    CA357286   4.249   5.127   6.764 -0.2973 -0.6067 -0.5915
18799THY    HA357287   4.247   5.020   6.785  0.3968 -0.6816 -0.6225
18799THY    CA457288   4.183   5.187   6.653  0.8635 -0.1480  0.0759
18799THY    HA457289   4.122   5.119   6.594  0.0519  1.8391 -1.0065
18799THY    CA557290   4.181   5.321   6.629  0.6191 -0.3681 -0.2435
18799THY    CM157291   4.091   5.370   6.524 -0.3407 -0.1590 -0.9454
18799THY    HM157292   3.985   5.354   6.546 -0.4365 -0.4950 -0.7769
18799THY    HM257293   4.107   5.318   6.429 -1.7730 -0.7210 -0.4163
18799THY    HM357294   4.115   5.477   6.522  1.9245 -1.7476 -1.4175
18799THY    CA657295   4.248   5.407   6.722  0.3058 -0.0134  1.3207
18799THY    HA657296   4.236   5.515   6.726 -0.8929 -0.2514  1.2098
18800THY      O57297   5.859   3.272   6.441  0.3727  0.1373  0.4659
18800THY     HO57298   5.885   3.318   6.359  1.5437  0.0126 -0.3854
18800THY    CA157299   5.978   3.250   6.508  0.2536 -0.1270  0.3323
18800THY    CA257300   5.983   3.175   6.623  0.2615 -0.3442  0.6145
18800THY    CP157301   5.853   3.126   6.687 -0.0366  0.3324  0.3978
18800THY    HP157302   5.770   3.176   6.636 -1.4985 -0.2424 -2.4512
18800THY    CP257303   5.842   3.166   6.834 -0.1529  0.4157 -0.1492
18800THY    HP257304   5.740   3.151   6.871 -0.3844 -0.7128 -1.6292
18800THY    HP357305   5.878   3.269   6.849  1.3360 -0.2568 -0.5467
18800THY    HP457306   5.915   3.116   6.898 -0.6160  0.3395 -0.9334
18800THY    CP357307   5.847   2.973   6.677  0.3921 -0.3496  0.5997
18800THY    HP557308   5.780   2.942   6.759 -0.0756 -1.2363 -0.8085
18800THY    HP657309   5.930   2.909   6.707 -2.3646  0.3232 -3.0145
18800THY    HP757310   5.805   2.941   6.581 -0.8855  0.7227 -1.1413
18800THY    CA357311   6.105   3.131   6.683 -0.0412 -0.5147 -1.0650
18800THY    HA357312   6.107   3.066   6.770 -1.7439 -1.0970 -1.9776
18800THY    CA457313   6.220   3.156   6.607  0.1921  0.0222 -0.1984
18800THY    HA457314   6.317   3.117   6.639  0.2793 -0.7920 -0.6954
18800THY    CA557315   6.215   3.225   6.485  0.3064  0.1543 -0.0332
18800THY    CM157316   6.341   3.236   6.398  0.1687  0.2148  0.3662
18800THY    HM157317   6.387   3.136   6.397 -1.1447  0.0034 -0.2524
18800THY    HM257318   6.407   3.311   6.442  0.8099 -1.9934  1.2010
18800THY    HM357319   6.323   3.255   6.291  3.0290 -0.6865 -1.3421
18800THY    CA657320   6.095   3.274   6.437 -0.1367 -0.6637 -0.4547
18800THY    HA657321   6.102   3.339   6.351  1.8237 -0.5979 -0.4907
18801THY      O57322   0.996   2.960   3.824  0.1415  0.8207  0.3232
18801THY     HO57323   1.065   3.020   3.789  0.4938 -1.0470 -1.0683
18801THY    CA157324   0.890   3.042   3.828 -0.1901 -0.4735  0.2979
18801THY    CA257325   0.766   3.000   3.877  0.0237 -0.3421 -0.0879
18801THY    CP157326   0.750   2.864   3.936  1.3335 -0.3204  0.4263
18801THY    HP157327   0.847   2.835   3.977  1.0773  0.4510  0.6350
18801THY    CP257328   0.693   2.772   3.830 -0.3003 -0.1679 -0.4193
18801THY    HP257329   0.755   2.754   3.742 -0.8780 -0.5426 -0.6019
18801THY    HP357330   0.604   2.814   3.781  1.0688 -2.0063  0.4386
18801THY    HP457331   0.649   2.681   3.874 -1.2135  0.3099  0.2332
18801THY    CP357332   0.658   2.855   4.062  0.3615  0.0083  0.2162
18801THY    HP557333   0.698   2.926   4.134  1.8951 -0.9815  0.3961
18801THY    HP657334   0.665   2.751   4.097  3.3215  1.0713  0.6950
18801THY    HP757335   0.555   2.878   4.032  0.5227 -0.3674  0.4399
18801THY    CA357336   0.651   3.082   3.856  0.3760  0.4576  0.5882
18801THY    HA357337   0.552   3.055   3.891 -0.7728 -1.7247  1.6717
18801THY    CA457338   0.668   3.209   3.793  0.0200 -0.0616 -0.2677
18801THY    HA457339   0.586   3.266   3.750 -1.0501  0.4645 -1.3766
18801THY    CA557340   0.794   3.259   3.762 -0.0580 -0.5968  0.9329
18801THY    CM157341   0.814   3.379   3.672  0.4595 -0.6519 -0.0715
18801THY    HM157342   0.811   3.475   3.724 -0.7808 -0.6138 -0.1206
18801THY    HM257343   0.726   3.374   3.607 -2.1534  2.7280 -2.4036
18801THY    HM357344   0.910   3.366   3.620  0.0531 -1.7528  1.1553
18801THY    CA657345   0.907   3.172   3.774  0.3998 -0.3467 -0.2548
18801THY    HA657346   1.003   3.194   3.730 -0.5643 -1.8015  1.2940
18802THY      O57347   8.713   1.265   2.502 -0.0023  0.4594  0.1380
18802THY     HO57348   8.746   1.350   2.535 -0.8226 -2.7288  1.8640
18802THY    CA157349   8.822   1.190   2.471 -0.1061 -0.4911 -0.0782
18802THY    CA257350   8.799   1.056   2.435  0.1013 -0.0858  0.8056
18802THY    CP157351   8.669   0.977   2.431  0.4144 -0.6886  0.2379
18802THY    HP157352   8.587   1.048   2.451  0.2539  1.5552 -0.4907
18802THY    CP257353   8.646   0.883   2.549  0.0900  0.0110 -0.3490
18802THY    HP257354   8.679   0.945   2.634 -0.1395 -0.2466  0.1352
18802THY    HP357355   8.715   0.798   2.544 -0.1096  1.5764 -0.6328
18802THY    HP457356   8.544   0.847   2.562  0.0371 -1.1177 -0.6452
18802THY    CP357357   8.648   0.904   2.293 -0.1308 -0.1937  0.3546
18802THY    HP557358   8.543   0.873   2.291 -0.1045 -1.2989  0.2778
18802THY    HP657359   8.704   0.811   2.279 -1.0565  1.1506 -0.4448
18802THY    HP757360   8.664   0.981   2.216  2.3144 -0.3419 -0.2178
18802THY    CA357361   8.909   0.982   2.402 -0.6227  0.8058  0.2092
18802THY    HA357362   8.901   0.881   2.365  0.3843  0.8506  0.1026
18802THY    CA457363   9.036   1.042   2.391 -0.8576 -0.2134  0.4158
18802THY    HA457364   9.127   0.993   2.357 -0.4531  0.5369  0.6311
18802THY    CA557365   9.057   1.170   2.440  0.0788 -0.1077 -0.2760
18802THY    CM157366   9.194   1.219   2.469 -0.4003 -0.2565 -0.2651
18802THY    HM157367   9.219   1.211   2.576  1.3052 -0.7447 -2.1371
18802THY    HM257368   9.226   1.320   2.441  1.8697  0.9356 -0.5749
18802THY    HM357369   9.270   1.152   2.427 -0.3800 -2.8137  1.2012
18802THY    CA657370   8.949   1.248   2.483 -0.0729  0.5984  0.3157
18802THY    HA657371   8.964   1.350   2.517  1.3119  1.9156 -0.2834
18803THY      O57372   9.370   0.863   2.366  0.3395  0.6919 -0.0474
18803THY     HO57373   9.454   0.906   2.340  0.4554  1.6754  0.3434
18803THY    CA157374   9.364   0.879   2.503 -1.0243  0.1375  0.8639
18803THY    CA257375   9.295   0.794   2.587  0.0821 -0.2591 -0.0685
18803THY    CP157376   9.222   0.677   2.518  0.1189 -0.7989  0.4716
18803THY    HP157377   9.203   0.688   2.411 -1.3660 -0.8409 -1.8586
18803THY    CP257378   9.084   0.655   2.579 -0.6855 -0.0740  0.0047
18803THY    HP257379   9.038   0.753   2.562  0.8977 -1.9871  0.4851
18803THY    HP357380   9.087   0.621   2.683  0.5954  0.1010  0.5983
18803THY    HP457381   9.023   0.587   2.517 -0.2599 -3.5589  2.5141
18803THY    CP357382   9.307   0.554   2.524 -0.0464 -0.8299  0.9242
18803THY    HP557383   9.343   0.527   2.624 -5.0358  0.9798 -0.2078
18803THY    HP657384   9.388   0.563   2.450  0.5478 -0.7747 -2.7272
18803THY    HP757385   9.242   0.477   2.481  0.6187 -1.2331  0.5811
18803THY    CA357386   9.306   0.813   2.728 -0.2049  0.3020 -0.1811
18803THY    HA357387   9.261   0.740   2.794 -2.0169 -0.2025  0.4164
18803THY    CA457388   9.367   0.928   2.778 -0.2673  0.4482 -0.3482
18803THY    HA457389   9.383   0.940   2.885 -0.2891  0.1884  3.0265
18803THY    CA557390   9.427   1.024   2.689 -0.0745 -1.1673 -0.2105
18803THY    CM157391   9.504   1.143   2.747 -0.6508  0.4060 -0.0080
18803THY    HM157392   9.540   1.116   2.846 -1.1727  0.4552 -0.5530
18803THY    HM257393   9.438   1.231   2.750 -0.1154 -1.9688  0.5606
18803THY    HM357394   9.586   1.180   2.685 -0.9007 -0.9507 -1.6052
18803THY    CA657395   9.429   0.990   2.553 -0.3279 -0.2942  0.2636
18803THY    HA657396   9.479   1.062   2.488  0.8342  0.4065  0.1209
18804THY      O57397   4.748   1.947   7.598  0.0377 -0.0838 -0.0951
18804THY     HO57398   4.748   2.016   7.529  3.0975 -2.3449 -2.0882
18804THY    CA157399   4.624   1.936   7.651 -0.3816  0.1365  0.1212
18804THY    CA257400   4.587   1.832   7.736  0.9861 -0.5620  0.2110
18804THY    CP157401   4.689   1.724   7.761  0.0953 -0.3878 -0.0518
18804THY    HP157402   4.793   1.757   7.763 -0.2028  1.0821  0.9011
18804THY    CP257403   4.696   1.611   7.655 -0.2319 -0.4239 -0.2089
18804THY    HP257404   4.604   1.552   7.653 -1.4650 -0.5261  1.6221
18804THY    HP357405   4.776   1.541   7.682 -1.4520  1.1259 -1.0730
18804THY    HP457406   4.722   1.647   7.555  2.7852  0.0880 -0.6997
18804THY    CP357407   4.664   1.668   7.910  0.5504  0.8691  0.2953
18804THY    HP557408   4.755   1.626   7.954  0.0275  3.5421  1.7415
18804THY    HP657409   4.575   1.603   7.908  0.1447 -1.1626  0.8381
18804THY    HP757410   4.639   1.751   7.977 -2.7501 -0.1572  0.2906
18804THY    CA357411   4.455   1.819   7.786 -0.1803  0.6213 -0.1660
18804THY    HA357412   4.423   1.738   7.851  0.6652  0.2868 -0.7877
18804THY    CA457413   4.365   1.924   7.758 -0.0118 -0.1128 -0.5764
18804THY    HA457414   4.266   1.926   7.802 -1.1945 -2.5548  2.1899
18804THY    CA557415   4.405   2.037   7.682 -0.0531 -0.0744  0.2552
18804THY    CM157416   4.307   2.152   7.668  0.5856  1.1502 -0.2402
18804THY    HM157417   4.302   2.181   7.562  1.5313  1.1431 -0.0622
18804THY    HM257418   4.358   2.239   7.711  0.8096 -2.0199  1.3461
18804THY    HM357419   4.206   2.135   7.708  0.4270  0.5764 -0.6768
18804THY    CA657420   4.532   2.041   7.628 -1.0673 -0.3428 -0.3236
18804THY    HA657421   4.554   2.124   7.561 -1.5281 -1.2939 -0.9515
18805THY      O57422   7.321   5.851   2.833  0.0915  0.5904 -0.4544
18805THY     HO57423   7.406   5.818   2.866  0.1904 -1.1622 -2.1102
18805THY    CA157424   7.297   5.983   2.865  0.3638 -0.4022  0.8224
18805THY    CA257425   7.188   6.045   2.802 -0.4988 -0.6258  0.2293
18805THY    CP157426   7.085   5.956   2.720  0.1378 -0.3924  0.3507
18805THY    HP157427   7.117   5.851   2.718 -0.5025  1.0066  0.1091
18805THY    CP257428   7.056   6.005   2.573 -0.0749  0.0755  0.3991
18805THY    HP257429   7.021   5.924   2.507 -1.6561 -2.5358  2.9908
18805THY    HP357430   7.157   6.025   2.535  0.1787 -0.3389 -1.4438
18805THY    HP457431   6.987   6.090   2.572 -1.7164  2.1548 -0.8108
18805THY    CP357432   6.958   5.950   2.794 -0.5820 -0.2466  0.2845
18805THY    HP557433   6.899   5.871   2.746  1.8131  0.1749 -1.9265
18805THY    HP657434   6.904   6.045   2.798 -0.3042  0.6290  0.4102
18805THY    HP757435   6.967   5.922   2.899 -0.5221 -0.3759 -0.2034
18805THY    CA357436   7.174   6.183   2.805  0.6185  0.0766  0.0070
18805THY    HA357437   7.090   6.228   2.753 -0.1165  2.2763  1.3277
18805THY    CA457438   7.255   6.258   2.885  0.7361  0.7043 -0.1435
18805THY    HA457439   7.251   6.366   2.898 -0.3370 -0.8902  0.0556
18805THY    CA557440   7.367   6.194   2.945  0.3205  0.3846 -0.3273
18805THY    CM157441   7.463   6.270   3.032  0.4017  0.1739 -0.3700
18805THY    HM157442   7.558   6.290   2.981 -0.8621 -2.0089  0.3582
18805THY    HM257443   7.482   6.213   3.123 -1.8074 -0.2998 -2.0126
18805THY    HM357444   7.418   6.368   3.052 -2.1457 -2.8905 -0.7330
18805THY    CA657445   7.393   6.060   2.936  0.0349  0.6544  0.2337
18805THY    HA657446   7.483   6.024   2.985 -0.6104  2.5835  1.1046
18806THY      O57447   5.938   7.758   4.593 -0.5336 -0.0199 -0.1399
18806THY     HO57448   5.934   7.849   4.627  1.3044  0.2525 -0.1097
18806THY    CA157449   5.909   7.680   4.691  0.9103 -0.3709 -0.0446
18806THY    CA257450   5.920   7.538   4.679  0.3389 -0.2374  0.1983
18806THY    CP157451   5.936   7.471   4.544  0.3549 -0.1122 -0.0422
18806THY    HP157452   5.932   7.540   4.459  0.1024  1.0603  1.4628
18806THY    CP257453   5.811   7.393   4.509  0.3130 -0.2515 -0.6361
18806THY    HP257454   5.821   7.334   4.417  0.1104  0.1172 -1.2627
18806THY    HP357455   5.725   7.461   4.515  1.2501 -1.8780  0.7777
18806THY    HP457456   5.799   7.312   4.582 -0.6693  0.4056  0.0802
18806THY    CP357457   6.064   7.392   4.532  0.6829 -0.9900 -0.1182
18806THY    HP557458   6.147   7.459   4.560 -0.0455 -0.0849  0.4233
18806THY    HP657459   6.081   7.342   4.435 -0.4727 -0.8788 -0.7467
18806THY    HP757460   6.070   7.315   4.610 -0.5882 -0.8257 -0.0669
18806THY    CA357461   5.885   7.459   4.792  0.0854  0.1977 -0.0026
18806THY    HA357462   5.887   7.350   4.787  2.1941  0.3849 -0.0199
18806THY    CA457463   5.870   7.522   4.914  0.6818  0.5676 -0.4749
18806THY    HA457464   5.838   7.462   4.999 -1.7866 -1.4593 -2.2266
18806THY    CA557465   5.867   7.661   4.926 -0.5903  0.1736 -0.1600
18806THY    CM157466   5.826   7.724   5.054 -0.1787  0.8989  0.6875
18806THY    HM157467   5.882   7.674   5.133  0.9223 -0.7464 -0.8258
18806THY    HM257468   5.719   7.704   5.066 -0.2954 -2.1563 -1.2011
18806THY    HM357469   5.860   7.829   5.059  1.4786  0.8079  0.1803
18806THY    CA657470   5.887   7.737   4.814 -1.0442 -0.3046 -0.0924
18806THY    HA657471   5.888   7.845   4.827 -0.3311  1.4731 -0.2900
18807THY      O57472   0.979   0.143   3.425  0.3115 -0.9563  0.2970
18807THY     HO57473   0.956   0.151   3.519 -2.5402 -1.3261 -1.7726
18807THY    CA157474   0.974   0.270   3.376 -0.1343  0.1447  0.4889
18807THY    CA257475   1.015   0.304   3.241 -0.2164  0.3579 -0.3693
18807THY    CP157476   1.069   0.196   3.144 -0.3090  0.5431  0.6615
18807THY    HP157477   1.055   0.102   3.198 -2.0730 -0.6210  0.1969
18807THY    CP257478   1.216   0.211   3.121 -0.1386 -0.5865 -0.5863
18807THY    HP257479   1.268   0.178   3.211 -4.4064  1.8702 -1.3686
18807THY    HP357480   1.236   0.315   3.092  1.1856 -0.7475 -0.8753
18807THY    HP457481   1.262   0.137   3.054 -1.8611 -2.3280 -0.1722
18807THY    CP357482   0.978   0.189   3.014  0.2842 -0.4670 -0.2324
18807THY    HP557483   1.007   0.109   2.945  0.9896 -0.4722  0.0241
18807THY    HP657484   0.997   0.284   2.962 -0.2799 -1.1396 -0.4753
18807THY    HP757485   0.876   0.173   3.053  0.3580 -0.2385 -0.1533
18807THY    CA357486   1.007   0.442   3.200  0.1537 -0.0258 -0.1138
18807THY    HA357487   1.043   0.469   3.100 -3.5771 -1.6225 -0.4858
18807THY    CA457488   0.948   0.533   3.283 -0.1991 -0.0655  0.2488
18807THY    HA457489   0.944   0.639   3.262  0.4044 -0.1693  0.2564
18807THY    CA557490   0.922   0.497   3.417  0.0130 -0.0676 -0.6654
18807THY    CM157491   0.884   0.603   3.519 -0.2302 -0.7980 -0.2142
18807THY    HM157492   0.776   0.622   3.520 -0.1803  1.0613  0.2180
18807THY    HM257493   0.926   0.698   3.486  0.8065  1.8952  0.3736
18807THY    HM357494   0.914   0.582   3.623  0.5101 -1.1071 -0.7438
18807THY    CA657495   0.937   0.369   3.464 -0.3889 -0.1820 -0.3965
18807THY    HA657496   0.907   0.343   3.565  0.9663  0.6254  1.0541
18808THY      O57497   3.764   5.912   6.278  0.7869  0.8919  0.6067
18808THY     HO57498   3.708   5.958   6.213 -0.0097  1.2563  0.1754
18808THY    CA157499   3.812   6.020   6.352 -0.2335 -0.8609  0.1550
18808THY    CA257500   3.928   6.002   6.434  0.0906  0.7257  0.7826
18808THY    CP157501   4.009   5.871   6.440 -0.3021  0.0201  0.5033
18808THY    HP157502   3.951   5.788   6.400  1.1929  1.6149 -1.4323
18808THY    CP257503   4.038   5.817   6.586 -0.3980 -0.5870  0.1635
18808THY    HP257504   4.058   5.710   6.580 -1.0860 -1.8928  0.0830
18808THY    HP357505   3.944   5.817   6.643 -0.0904 -0.0661  0.8709
18808THY    HP457506   4.122   5.874   6.627  0.5620 -2.2245 -0.0058
18808THY    CP357507   4.132   5.885   6.349  0.2674 -0.4912 -0.0514
18808THY    HP557508   4.173   5.985   6.369  1.0723  1.6428 -0.7511
18808THY    HP657509   4.084   5.873   6.251 -1.2306  0.4150 -1.9172
18808THY    HP757510   4.206   5.811   6.378 -0.5433  0.5268 -0.4930
18808THY    CA357511   3.972   6.115   6.508 -0.2004  0.0069 -0.1243
18808THY    HA357512   4.058   6.105   6.573  2.2080 -2.9680  0.0442
18808THY    CA457513   3.886   6.229   6.517 -0.3301  0.4869  0.4164
18808THY    HA457514   3.912   6.309   6.586  2.3214 -2.0384  1.9142
18808THY    CA557515   3.771   6.235   6.444  0.4282  0.4411 -0.5191
18808THY    CM157516   3.672   6.341   6.468  0.1207 -0.0837 -0.5024
18808THY    HM157517   3.689   6.411   6.551 -1.8405 -1.8428  2.2690
18808THY    HM257518   3.579   6.285   6.485  0.1271 -0.5998 -0.6727
18808THY    HM357519   3.653   6.398   6.377  0.7809  0.0464 -0.0630
18808THY    CA657520   3.735   6.131   6.353 -0.8740 -0.4959  0.4017
18808THY    HA657521   3.641   6.143   6.299 -1.5741  0.6965  0.4343
18809THY      O57522   0.670   5.516   2.294  1.0114  0.1887 -0.4436
18809THY     HO57523   0.627   5.548   2.375 -1.2608 -1.0473 -0.1626
18809THY    CA157524   0.584   5.425   2.240 -0.7183  0.2851  0.5872
18809THY    CA257525   0.639   5.307   2.173 -0.6756  0.5411  0.5894
18809THY    CP157526   0.792   5.288   2.162  0.1554  0.3793 -0.1613
18809THY    HP157527   0.834   5.342   2.249 -1.1542  0.8181  0.1773
18809THY    CP257528   0.852   5.338   2.038 -0.4907  0.0452  0.4074
18809THY    HP257529   0.962   5.343   2.046 -0.4747  0.0399  0.0786
18809THY    HP357530   0.827   5.444   2.027  1.6321  1.7846  1.1633
18809THY    HP457531   0.816   5.288   1.948 -3.7652  0.9758  0.8677
18809THY    CP357532   0.833   5.136   2.174 -0.2240  0.9927  0.2601
18809THY    HP557533   0.941   5.127   2.191  0.3273 -1.5964  1.1825
18809THY    HP657534   0.806   5.079   2.085 -1.0494  0.6945  1.0959
18809THY    HP757535   0.766   5.090   2.248 -2.3003 -0.3001  1.0846
18809THY    CA357536   0.548   5.216   2.133 -0.1167 -0.1898  0.1237
18809THY    HA357537   0.576   5.126   2.077  2.0908  0.7721  0.1697
18809THY    CA457538   0.410   5.225   2.162 -0.8223  0.7681  0.2209
18809THY    HA457539   0.341   5.143   2.149 -1.1416 -0.2131  0.6364
18809THY    CA557540   0.367   5.338   2.228  0.4768  0.2597  0.2202
18809THY    CM157541   0.221   5.357   2.256  1.2142  0.1401  0.3773
18809THY    HM157542   0.167   5.277   2.205  0.0436  1.3894  0.3226
18809THY    HM257543   0.179   5.451   2.218  0.8636 -0.7698 -0.1369
18809THY    HM357544   0.204   5.341   2.363 -2.4773 -0.4495 -0.4025
18809THY    CA657545   0.452   5.443   2.264  0.0753 -0.1152 -0.0100
18809THY    HA657546   0.419   5.536   2.309  0.2149 -2.0117  0.9903
18810THY      O57547   2.039   0.297   2.153  0.1961  0.0723  0.3693
18810THY     HO57548   1.949   0.265   2.136 -0.2386  1.4608  0.7990
18810THY    CA157549   2.124   0.274   2.053 -0.0974 -0.3623  0.2277
18810THY    CA257550   2.246   0.348   2.050 -0.3520 -0.3860  0.5407
18810THY    CP157551   2.277   0.442   2.167 -0.3296  0.0662 -0.4314
18810THY    HP157552   2.231   0.399   2.257  1.2071  2.0935  1.9013
18810THY    CP257553   2.207   0.587   2.155 -0.5648 -0.2267  0.0878
18810THY    HP257554   2.098   0.583   2.167 -0.6006 -0.1662  0.9489
18810THY    HP357555   2.226   0.626   2.055  2.6279  0.5089  0.7489
18810THY    HP457556   2.234   0.655   2.238 -1.2439 -0.4621  0.6574
18810THY    CP357557   2.429   0.447   2.208 -0.4141 -0.2625 -0.5528
18810THY    HP557558   2.488   0.488   2.126 -0.0044  0.5934  0.6463
18810THY    HP657559   2.454   0.349   2.249 -0.6840  0.8455 -0.1804
18810THY    HP757560   2.437   0.513   2.296  0.7282 -0.4073 -0.4875
18810THY    CA357561   2.332   0.320   1.946  0.4502  0.6317 -0.1780
18810THY    HA357562   2.424   0.374   1.928  0.5526 -0.0928 -0.5887
18810THY    CA457563   2.292   0.241   1.837 -0.7606 -0.4347 -0.0093
18810THY    HA457564   2.352   0.246   1.747 -0.0251  0.1273  2.8249
18810THY    CA557565   2.167   0.172   1.837  0.5522  0.8204 -0.3007
18810THY    CM157566   2.113   0.092   1.723 -0.1064  0.6074 -0.0062
18810THY    HM157567   2.197   0.037   1.680  0.2681  1.5072 -0.1522
18810THY    HM257568   2.074   0.159   1.645  0.0330  2.4067  2.2748
18810THY    HM357569   2.031   0.021   1.741  1.2251 -1.9709 -2.4059
18810THY    CA657570   2.086   0.195   1.944  0.6243  0.2160 -0.7633
18810THY    HA657571   1.982   0.166   1.931  0.8574 -1.8693 -0.8500
18811THY      O57572   6.912   4.829   7.260  0.3917 -0.2319 -0.3866
18811THY     HO57573   6.821   4.806   7.281 -0.1303  0.0036  1.6440
18811THY    CA157574   6.943   4.759   7.151 -0.0928  0.6189  0.3844
18811THY    CA257575   7.064   4.702   7.128 -0.2570 -0.5071 -0.3617
18811THY    CP157576   7.167   4.723   7.237 -0.8825  0.7715  0.1053
18811THY    HP157577   7.128   4.766   7.330  0.6633  1.2273  0.5875
18811THY    CP257578   7.279   4.828   7.209  0.8638  0.3388 -0.2203
18811THY    HP257579   7.338   4.840   7.301  1.2088  0.3557 -1.8332
18811THY    HP357580   7.231   4.924   7.190  1.4950 -1.8674 -0.2861
18811THY    HP457581   7.346   4.817   7.123  0.0749 -0.3519  0.2673
18811THY    CP357582   7.243   4.595   7.276 -0.2601 -0.1238 -0.1628
18811THY    HP557583   7.313   4.569   7.195  1.3111  1.6886 -1.9562
18811THY    HP657584   7.190   4.507   7.314 -0.4442 -0.5215 -0.2222
18811THY    HP757585   7.319   4.611   7.354 -1.9086  1.4403  0.3236
18811THY    CA357586   7.090   4.631   7.016  0.5258 -0.0796 -0.2269
18811THY    HA357587   7.188   4.589   6.993  0.3894 -0.2915 -0.4297
18811THY    CA457588   6.994   4.611   6.921 -0.6114 -0.0945  0.2584
18811THY    HA457589   7.012   4.555   6.830  0.8751  1.0869 -1.2666
18811THY    CA557590   6.870   4.687   6.935 -0.5918  0.2794  0.1663
18811THY    CM157591   6.772   4.685   6.818 -0.7782  0.1663  0.7012
18811THY    HM157592   6.826   4.643   6.733  1.1729  1.9910 -0.7081
18811THY    HM257593   6.749   4.790   6.796  0.4497 -1.8336  0.5923
18811THY    HM357594   6.682   4.625   6.838 -0.0398 -1.6341 -1.0849
18811THY    CA657595   6.848   4.760   7.051  0.5834 -0.1995  0.2641
18811THY    HA657596   6.760   4.823   7.060  0.3981 -2.1615  0.3467
18812THY      O57597   1.657   1.954   3.335  0.1375  0.2986  0.1055
18812THY     HO57598   1.655   1.902   3.253 -3.4065  0.4096 -0.1778
18812THY    CA157599   1.679   2.076   3.292 -0.6525  0.6671  0.4434
18812THY    CA257600   1.665   2.181   3.386  0.0762 -0.0290  0.0737
18812THY    CP157601   1.632   2.148   3.531  1.0540  0.5265 -1.2922
18812THY    HP157602   1.602   2.043   3.545  2.1162  0.5607 -1.6053
18812THY    CP257603   1.515   2.239   3.581 -0.3595 -0.3915 -0.6548
18812THY    HP257604   1.474   2.182   3.665 -0.3758 -1.8582 -2.9329
18812THY    HP357605   1.441   2.253   3.501  1.2842 -1.9714 -0.5907
18812THY    HP457606   1.551   2.339   3.608  0.3845 -0.9677 -0.7610
18812THY    CP357607   1.756   2.163   3.623 -0.2666  0.2409 -0.1624
18812THY    HP557608   1.801   2.258   3.594  0.2798 -1.9774 -1.0304
18812THY    HP657609   1.831   2.088   3.595 -1.3461  0.1036 -1.2147
18812THY    HP757610   1.743   2.158   3.732 -1.0328  0.3371  2.6620
18812THY    CA357611   1.681   2.314   3.332 -0.3550 -0.0126 -1.2262
18812THY    HA357612   1.665   2.406   3.388  3.2224 -2.0463  0.8160
18812THY    CA457613   1.720   2.339   3.199  0.4934 -0.2177  0.0875
18812THY    HA457614   1.740   2.441   3.170 -0.4668 -1.2800 -0.0043
18812THY    CA557615   1.733   2.225   3.117 -0.8102  0.2804  0.3727
18812THY    CM157616   1.782   2.244   2.975 -0.0021 -0.4263  0.6100
18812THY    HM157617   1.891   2.252   2.963  0.1869  1.7508  1.8167
18812THY    HM257618   1.741   2.338   2.937  0.1632  1.6668  1.5763
18812THY    HM357619   1.747   2.161   2.911  1.6087 -1.6042  0.7828
18812THY    CA657620   1.702   2.096   3.159 -0.0220 -0.2595 -0.1579
18812THY    HA657621   1.725   2.016   3.090  2.4124  0.3291 -0.0548
18813THY      O57622   2.824   6.066   5.743 -0.4689 -0.4074  0.0571
18813THY     HO57623   2.736   6.066   5.786 -0.4800 -0.4070 -0.9939
18813THY    CA157624   2.895   6.164   5.811 -0.2436  1.3165 -0.0836
18813THY    CA257625   3.032   6.188   5.784 -0.3970 -0.1504 -0.5102
18813THY    CP157626   3.114   6.107   5.683  0.7916  0.2393 -0.0704
18813THY    HP157627   3.076   6.005   5.671 -0.3505 -0.4293  0.4195
18813THY    CP257628   3.268   6.101   5.712  0.7202  0.1980  0.0061
18813THY    HP257629   3.320   6.039   5.639  0.6823  1.6494 -1.8122
18813THY    HP357630   3.279   6.044   5.805  2.1264 -0.4893 -0.8912
18813THY    HP457631   3.331   6.191   5.702 -0.2823 -3.3028  0.4673
18813THY    CP357632   3.095   6.170   5.544  0.0672  0.0263 -0.2504
18813THY    HP557633   3.102   6.280   5.544 -2.6808 -0.8442 -0.0050
18813THY    HP657634   2.990   6.152   5.521  0.3706 -0.2517 -1.7284
18813THY    HP757635   3.167   6.134   5.470  0.7190  1.5685 -2.3125
18813THY    CA357636   3.095   6.288   5.858 -0.5886 -0.7649  0.0701
18813THY    HA357637   3.193   6.329   5.833 -1.9200  0.1728  4.3904
18813THY    CA457638   3.027   6.348   5.963 -0.1949  0.5308  0.1693
18813THY    HA457639   3.069   6.431   6.020  0.3951  0.6995 -0.2417
18813THY    CA557640   2.898   6.305   5.995  0.3454  0.6119  0.2149
18813THY    CM157641   2.820   6.367   6.108 -0.4053  0.0449  0.4275
18813THY    HM157642   2.821   6.322   6.208 -0.0116  0.6063  1.6436
18813THY    HM257643   2.712   6.374   6.090 -0.3035 -2.0189 -1.8327
18813THY    HM357644   2.854   6.470   6.124 -0.2763  0.9978  0.2474
18813THY    CA657645   2.828   6.217   5.916 -0.2215 -0.5695  0.2171
18813THY    HA657646   2.730   6.183   5.947  0.1000 -0.3257 -0.5024
18814THY      O57647   2.951   8.485   4.850 -0.1812 -0.0951 -1.0239
18814THY     HO57648   2.983   8.467   4.760  0.3499  0.0344 -0.7488
18814THY    CA157649   2.814   8.470   4.853  0.5571 -0.2553 -0.7733
18814THY    CA257650   2.746   8.405   4.956 -0.0795 -0.0851  0.5204
18814THY    CP157651   2.818   8.373   5.082 -0.0755  0.0113  0.5198
18814THY    HP157652   2.927   8.386   5.073  0.0622  1.0807  0.1995
18814THY    CP257653   2.792   8.234   5.146  0.1834 -0.6082  0.0804
18814THY    HP257654   2.837   8.148   5.094  0.7246  2.6383 -1.7974
18814THY    HP357655   2.685   8.226   5.167  0.3085  0.6504  1.3031
18814THY    HP457656   2.841   8.225   5.244  0.3541 -0.7538 -0.7424
18814THY    CP357657   2.778   8.478   5.183 -0.0174 -0.0781 -0.1778
18814THY    HP557658   2.670   8.471   5.202 -0.5750 -2.3000  1.3009
18814THY    HP657659   2.792   8.579   5.143 -2.0785  0.8129  0.5093
18814THY    HP757660   2.819   8.461   5.283 -1.5726  0.8599  1.2066
18814THY    CA357661   2.608   8.389   4.951  0.1691  0.1107 -0.2902
18814THY    HA357662   2.557   8.342   5.034  2.2471  2.0235  0.6196
18814THY    CA457663   2.534   8.435   4.842 -0.5484 -0.2269  0.3352
18814THY    HA457664   2.428   8.413   4.832 -0.5354 -0.5351  0.4003
18814THY    CA557665   2.605   8.507   4.742  0.2358 -0.5774  0.5045
18814THY    CM157666   2.535   8.547   4.619 -0.3994 -0.6234 -0.0029
18814THY    HM157667   2.426   8.539   4.625 -0.6392  1.2828  3.1627
18814THY    HM257668   2.576   8.486   4.538 -1.1417 -0.1237 -1.1992
18814THY    HM357669   2.550   8.655   4.607  1.9757  1.3708 -0.0112
18814THY    CA657670   2.747   8.522   4.739 -0.1963  0.4122 -0.6314
18814THY    HA657671   2.800   8.567   4.656 -1.5143 -0.5934 -0.8794
18815THY      O57672   4.794   7.625   3.267  0.8254  0.0310  0.0805
18815THY     HO57673   4.853   7.563   3.221  0.7254 -0.8820  0.6365
18815THY    CA157674   4.663   7.599   3.237 -0.0197 -0.0239  0.4207
18815THY    CA257675   4.555   7.656   3.312  0.3333  0.2334  0.4376
18815THY    CP157676   4.586   7.747   3.428  0.0281  0.5636 -0.4646
18815THY    HP157677   4.668   7.813   3.399  0.1251  1.9847  0.0926
18815THY    CP257678   4.627   7.670   3.557 -0.2354 -0.4044  0.0450
18815THY    HP257679   4.627   7.738   3.643  0.6026 -0.2407 -0.1505
18815THY    HP357680   4.728   7.628   3.550 -0.2895 -0.4522 -0.0789
18815THY    HP457681   4.555   7.588   3.566  0.6772  1.4979 -0.5980
18815THY    CP357682   4.466   7.837   3.468 -0.7275  0.0557  0.3486
18815THY    HP557683   4.383   7.791   3.522 -1.0366 -1.6029 -1.1493
18815THY    HP657684   4.418   7.887   3.383  0.4456 -1.2628 -0.6944
18815THY    HP757685   4.510   7.913   3.534 -3.2529  0.7760  1.2884
18815THY    CA357686   4.429   7.596   3.302  0.3347 -0.0769 -0.1945
18815THY    HA357687   4.346   7.632   3.362  1.1433  1.9838 -1.5909
18815THY    CA457688   4.406   7.514   3.196 -0.2165  0.3187  0.1228
18815THY    HA457689   4.304   7.482   3.174  0.2442 -1.2999 -0.3581
18815THY    CA557690   4.500   7.471   3.105  0.1035 -0.2671 -0.2512
18815THY    CM157691   4.472   7.373   3.003  1.0881 -0.4064  0.2722
18815THY    HM157692   4.375   7.325   3.018  1.2202  1.9678  0.6274
18815THY    HM257693   4.548   7.296   3.022 -1.2080  0.8064 -1.8578
18815THY    HM357694   4.480   7.412   2.901 -1.7218 -0.2765  1.3966
18815THY    CA657695   4.635   7.514   3.128 -0.3932 -0.2471  0.5536
18815THY    HA657696   4.715   7.486   3.060 -0.9225 -0.5939 -0.1391
18816THY      O57697   0.971   4.649   4.227 -0.7939  0.7824  0.5635
18816THY     HO57698   0.976   4.731   4.279 -0.4653  0.0382  1.0349
18816THY    CA157699   0.931   4.551   4.302 -0.0607  0.4553 -0.0317
18816THY    CA257700   0.952   4.410   4.270 -0.2795  1.2656  0.2794
18816THY    CP157701   1.025   4.364   4.141  0.2082 -0.7945 -0.5657
18816THY    HP157702   1.049   4.441   4.067  0.6341 -0.1999 -0.1167
18816THY    CP257703   0.955   4.268   4.065  0.0401 -0.2173  0.3106
18816THY    HP257704   0.993   4.250   3.963  0.5461 -0.0715  0.5359
18816THY    HP357705   0.853   4.306   4.052  0.2322  0.8226  1.2307
18816THY    HP457706   0.934   4.172   4.112  1.4714  1.4251  0.7584
18816THY    CP357707   1.164   4.327   4.183  0.5379  0.0814 -0.2528
18816THY    HP557708   1.164   4.238   4.247  1.1103  0.6849  0.1615
18816THY    HP657709   1.219   4.409   4.232 -1.0216  0.3446  0.6868
18816THY    HP757710   1.233   4.310   4.100 -0.7613 -1.2210  0.6501
18816THY    CA357711   0.915   4.312   4.363  0.2649 -0.4060 -0.2462
18816THY    HA357712   0.916   4.205   4.349 -0.0621  0.9183 -0.4339
18816THY    CA457713   0.848   4.358   4.476  0.3305 -0.4166 -0.2886
18816THY    HA457714   0.793   4.286   4.535 -2.2617 -0.8360  1.2090
18816THY    CA557715   0.834   4.496   4.507  0.1234 -0.3812  0.1154
18816THY    CM157716   0.748   4.530   4.625  0.1102  0.2603 -0.1846
18816THY    HM157717   0.725   4.441   4.685  0.0630 -0.1372 -0.4426
18816THY    HM257718   0.652   4.575   4.596  0.3249 -0.8206 -0.4051
18816THY    HM357719   0.809   4.598   4.685 -1.9823  1.1195  1.0405
18816THY    CA657720   0.875   4.592   4.416  0.1292 -0.1682 -0.2668
18816THY    HA657721   0.853   4.697   4.428  3.2514 -1.1455  0.6041
18817THY      O57722   2.362   4.155   6.226  0.4426  0.0169 -0.0988
18817THY     HO57723   2.420   4.230   6.247 -0.7134  1.0406  0.5463
18817THY    CA157724   2.417   4.046   6.279 -0.2935 -0.2071 -0.2491
18817THY    CA257725   2.385   3.918   6.234  0.2327 -0.9769  0.3984
18817THY    CP157726   2.286   3.906   6.120  0.2475 -0.0933  0.3925
18817THY    HP157727   2.285   3.994   6.055  2.4839  0.2614  0.7284
18817THY    CP257728   2.143   3.888   6.181  0.4705 -0.0817  0.3449
18817THY    HP257729   2.066   3.884   6.103  0.7083 -0.3564  0.9534
18817THY    HP357730   2.122   3.966   6.256  0.8428 -0.7585  1.1075
18817THY    HP457731   2.142   3.793   6.236  0.5101  0.8251  0.8530
18817THY    CP357732   2.305   3.781   6.024 -0.4959 -0.7553  0.3133
18817THY    HP557733   2.273   3.821   5.927  0.0192 -0.2978  1.9020
18817THY    HP657734   2.264   3.684   6.052  1.3431 -1.5849 -0.7596
18817THY    HP757735   2.413   3.766   6.018 -0.2998 -0.0862  1.3335
18817THY    CA357736   2.433   3.807   6.303 -0.2060 -0.0012  0.2891
18817THY    HA357737   2.407   3.707   6.271  0.1495  2.5998 -0.7301
18817THY    CA457738   2.519   3.832   6.417 -0.3431 -0.5595 -0.1153
18817THY    HA457739   2.562   3.748   6.470  0.8005  1.1482  1.4583
18817THY    CA557740   2.554   3.964   6.448  0.0913  0.5072  0.5402
18817THY    CM157741   2.642   3.989   6.567  0.1062  0.5301  0.0781
18817THY    HM157742   2.591   4.001   6.663 -0.6175 -0.0784  2.4169
18817THY    HM257743   2.706   4.078   6.558  2.1859  1.4803 -1.2251
18817THY    HM357744   2.714   3.908   6.584 -0.2903  4.1719  0.3381
18817THY    CA657745   2.507   4.069   6.378 -0.7707 -0.8188  0.3273
18817THY    HA657746   2.535   4.167   6.416  1.4334  0.9105 -0.8837
18818THY      O57747   4.320   2.115   2.776  0.3207 -0.3867 -0.1412
18818THY     HO57748   4.234   2.142   2.741  0.3894 -0.8551 -0.5185
18818THY    CA157749   4.334   2.174   2.898  0.4207  0.5067  0.5063
18818THY    CA257750   4.391   2.106   3.006  0.2542 -0.1049  0.1825
18818THY    CP157751   4.425   1.962   2.983 -0.6201 -0.0423  0.7797
18818THY    HP157752   4.356   1.921   2.908  0.9294 -1.9029  1.4546
18818THY    CP257753   4.418   1.866   3.102 -0.5113 -0.1475  0.4446
18818THY    HP257754   4.319   1.852   3.146 -0.4692 -0.9753 -3.8599
18818THY    HP357755   4.478   1.905   3.185 -0.0339  1.0793 -2.6181
18818THY    HP457756   4.455   1.766   3.075  0.5521 -1.3929  1.1442
18818THY    CP357757   4.562   1.926   2.924 -0.2394  0.2631  0.2180
18818THY    HP557758   4.568   1.818   2.903 -2.2645  0.1652  0.0748
18818THY    HP657759   4.641   1.962   2.990 -0.3437 -0.6314  2.2158
18818THY    HP757760   4.575   1.976   2.827  1.1409  1.6964  2.8475
18818THY    CA357761   4.431   2.177   3.119  0.3660 -0.3387  0.0243
18818THY    HA357762   4.485   2.132   3.202  0.6604  0.1435  1.2211
18818THY    CA457763   4.387   2.314   3.128 -0.0215 -0.2912 -0.3376
18818THY    HA457764   4.405   2.379   3.213 -0.6580 -0.9321  0.6969
18818THY    CA557765   4.317   2.376   3.021 -0.3394 -0.0906 -0.2077
18818THY    CM157766   4.285   2.524   3.025  0.2627 -0.6965  0.4333
18818THY    HM157767   4.316   2.580   2.936  1.6749 -1.2322 -1.1013
18818THY    HM257768   4.347   2.569   3.103  3.3408 -2.3877 -0.5711
18818THY    HM357769   4.181   2.542   3.053  0.4717  0.4862 -0.1045
18818THY    CA657770   4.292   2.306   2.906 -0.2863  0.7337  0.6024
18818THY    HA657771   4.247   2.341   2.814 -0.7466  0.0128 -1.7104
18819THY      O57772   2.743   1.289   6.952  0.6348  0.5222  0.1268
18819THY     HO57773   2.741   1.302   7.048  0.7507  0.3820  1.3202
18819THY    CA157774   2.815   1.187   6.924  0.1326  0.2016  0.4907
18819THY    CA257775   2.856   1.163   6.793 -0.1162 -0.7649 -0.0052
18819THY    CP157776   2.824   1.264   6.683  0.3970 -0.2508 -0.2384
18819THY    HP157777   2.753   1.344   6.709  0.5862 -0.4584 -0.0019
18819THY    CP257778   2.753   1.200   6.562  0.3034 -0.2487  0.3950
18819THY    HP257779   2.816   1.119   6.523  1.7595  0.3466  1.1964
18819THY    HP357780   2.735   1.259   6.472 -0.5507 -1.5045 -1.6628
18819THY    HP457781   2.654   1.165   6.594  0.5655 -0.3730 -0.4767
18819THY    CP357782   2.942   1.343   6.626 -0.0602  0.3651 -0.0361
18819THY    HP557783   2.904   1.405   6.543 -1.1469 -0.9903 -2.3470
18819THY    HP657784   3.017   1.280   6.577  0.9145  2.0163 -0.1946
18819THY    HP757785   2.990   1.405   6.702  2.7855 -2.5102  1.5921
18819THY    CA357786   2.954   1.061   6.770 -0.5082 -0.4631  0.0503
18819THY    HA357787   2.990   1.041   6.670  1.1061  0.0723  0.0886
18819THY    CA457788   2.991   0.973   6.875 -0.0093 -0.5936  0.2283
18819THY    HA457789   3.060   0.890   6.863 -0.1358  0.8734 -0.1262
18819THY    CA557790   2.932   0.984   6.999  0.2709  0.1711 -0.1939
18819THY    CM157791   2.970   0.888   7.103  0.5952 -0.3175  0.2435
18819THY    HM157792   2.929   0.787   7.094 -0.1818 -2.3347  0.6843
18819THY    HM257793   2.946   0.924   7.204  0.6742  0.3296 -1.4324
18819THY    HM357794   3.078   0.869   7.101  1.0896  2.1294  2.2639
18819THY    CA657795   2.851   1.097   7.025  0.2747 -0.3463  0.0891
18819THY    HA657796   2.821   1.108   7.129  1.2503 -0.1083  0.6244
18820THY      O57797   0.948   2.642   7.549  0.0193 -0.3553 -0.1706
18820THY     HO57798   1.025   2.690   7.584 -0.3548  1.5836 -0.8987
18820THY    CA157799   0.855   2.737   7.534 -0.3365 -0.0531 -0.1326
18820THY    CA257800   0.734   2.714   7.472  0.0021  0.7176  0.1174
18820THY    CP157801   0.711   2.565   7.430  0.7405  0.4853 -0.5542
18820THY    HP157802   0.811   2.519   7.423  1.7831 -0.3793  1.7217
18820THY    CP257803   0.638   2.552   7.298  0.1512 -0.3394  0.1156
18820THY    HP257804   0.538   2.595   7.309  0.7550 -0.9451  1.7733
18820THY    HP357805   0.623   2.447   7.271 -0.7362  1.8728 -0.3759
18820THY    HP457806   0.671   2.605   7.207 -1.1212 -0.2390  1.1341
18820THY    CP357807   0.622   2.493   7.538  0.5324  0.0704  0.1363
18820THY    HP557808   0.606   2.386   7.519 -1.2393  0.7271  0.2535
18820THY    HP657809   0.522   2.538   7.532  0.4167  1.4880  0.1233
18820THY    HP757810   0.655   2.514   7.640 -0.0073  0.3097 -0.1437
18820THY    CA357811   0.639   2.809   7.452 -0.1286  0.1696  0.7319
18820THY    HA357812   0.547   2.785   7.399  0.3385 -0.3923  0.1340
18820THY    CA457813   0.666   2.934   7.510 -0.4943 -0.2229 -0.0194
18820THY    HA457814   0.585   3.007   7.504 -2.5458  0.7022 -2.0918
18820THY    CA557815   0.786   2.964   7.568 -0.9363 -0.2504  0.2250
18820THY    CM157816   0.818   3.100   7.615  0.0690  0.3124 -0.3159
18820THY    HM157817   0.901   3.145   7.560 -0.4611  0.3158  0.7043
18820THY    HM257818   0.851   3.092   7.719  2.1426 -0.4315 -2.4090
18820THY    HM357819   0.728   3.164   7.607 -0.4666 -1.5183 -1.2345
18820THY    CA657820   0.885   2.860   7.582  0.0578 -0.2453 -0.1141
18820THY    HA657821   0.983   2.883   7.623 -0.2837  0.8802 -0.5724
18821THY      O57822   7.299   3.937   5.910 -0.3195  0.7203 -0.4635
18821THY     HO57823   7.337   3.856   5.948 -1.8283  0.0326 -1.5412
18821THY    CA157824   7.291   4.027   6.013 -0.5618  0.4264  0.2615
18821THY    CA257825   7.282   4.165   5.982  0.0432  0.0328  0.0820
18821THY    CP157826   7.322   4.218   5.839  0.1889 -0.6453  0.1353
18821THY    HP157827   7.340   4.143   5.762 -2.0138  0.4540 -1.6711
18821THY    CP257828   7.455   4.303   5.855  0.0837  0.2922  0.5075
18821THY    HP257829   7.429   4.390   5.916  2.6305 -0.4235  1.8910
18821THY    HP357830   7.481   4.349   5.759  0.4841  0.7736  1.3009
18821THY    HP457831   7.529   4.237   5.902  0.7254 -0.3867  0.7196
18821THY    CP357832   7.214   4.298   5.768  0.2495  0.2022 -0.2672
18821THY    HP557833   7.148   4.226   5.718 -0.0196 -0.7373  0.6127
18821THY    HP657834   7.248   4.371   5.694 -0.6447  0.6240  0.6025
18821THY    HP757835   7.158   4.363   5.836  0.2827 -0.2007  0.1909
18821THY    CA357836   7.269   4.256   6.087 -0.6947 -0.4133 -0.2871
18821THY    HA357837   7.261   4.362   6.069 -1.1939 -0.8322 -0.3927
18821THY    CA457838   7.255   4.211   6.223 -0.4434  0.1545 -0.0760
18821THY    HA457839   7.235   4.276   6.308  2.0276  0.5912  0.2040
18821THY    CA557840   7.268   4.075   6.249  0.3520 -0.1789  0.0679
18821THY    CM157841   7.277   4.029   6.394  0.7525 -0.1678 -0.3765
18821THY    HM157842   7.369   4.055   6.447  1.6392 -1.2651 -1.1501
18821THY    HM257843   7.285   3.920   6.382 -0.6906 -0.4181 -0.4778
18821THY    HM357844   7.187   4.037   6.455  1.1548  0.4188 -0.2701
18821THY    CA657845   7.285   3.984   6.145  0.6134 -0.4361 -0.2610
18821THY    HA657846   7.291   3.879   6.171  2.0416  0.2494 -0.0414
18822THY      O57847   4.073   0.764   2.369 -0.3056  0.3176  0.1804
18822THY     HO57848   4.125   0.817   2.432  1.7686 -0.3643 -0.9637
18822THY    CA157849   4.083   0.630   2.402  0.2356  0.0581 -0.2925
18822THY    CA257850   4.067   0.528   2.309  0.4107 -0.6256 -0.1380
18822THY    CP157851   4.077   0.566   2.159  0.4463  0.4140 -0.0621
18822THY    HP157852   4.055   0.672   2.147 -2.6301  1.4843 -0.4811
18822THY    CP257853   3.964   0.499   2.080  0.6308 -0.2915 -0.4471
18822THY    HP257854   3.967   0.528   1.974 -0.4260 -0.2118  0.0040
18822THY    HP357855   3.869   0.526   2.126 -0.1634 -3.8783  4.3271
18822THY    HP457856   3.984   0.392   2.093  0.9324 -0.0492 -0.3629
18822THY    CP357857   4.204   0.522   2.086  0.6386  0.0973  0.0922
18822THY    HP557858   4.210   0.548   1.980  1.1299  0.1408  0.1711
18822THY    HP657859   4.202   0.413   2.098  0.7428 -1.1704 -0.0652
18822THY    HP757860   4.291   0.558   2.142  0.0263  0.0294  1.7590
18822THY    CA357861   4.091   0.398   2.354 -0.4170  0.4632 -0.4906
18822THY    HA357862   4.097   0.316   2.283  0.0349  0.6751 -0.6480
18822THY    CA457863   4.094   0.370   2.491 -0.0144 -0.2495  0.1424
18822THY    HA457864   4.084   0.268   2.527  1.2239 -1.4102 -0.4168
18822THY    CA557865   4.101   0.477   2.581  0.1494 -0.5928  0.1555
18822THY    CM157866   4.116   0.456   2.730  0.5241 -0.3067  0.2103
18822THY    HM157867   4.159   0.357   2.751  1.2120 -0.2289  0.5138
18822THY    HM257868   4.023   0.479   2.782  0.2019 -0.0807 -1.5132
18822THY    HM357869   4.196   0.517   2.773 -0.7603  3.4867 -0.5039
18822THY    CA657870   4.099   0.608   2.534  0.3920  0.0520 -0.2988
18822THY    HA657871   4.095   0.692   2.602  0.5296  0.4960 -0.6454
18823THY      O57872   7.160   4.909   2.230  0.1832 -0.2075  0.2076
18823THY     HO57873   7.223   4.983   2.241 -0.5573  0.9090  0.6928
18823THY    CA157874   7.196   4.809   2.316 -0.4350  0.0804  0.4141
18823THY    CA257875   7.115   4.696   2.339  0.5196  0.1930 -0.7893
18823THY    CP157876   6.987   4.680   2.258  0.3559  1.2260 -0.5416
18823THY    HP157877   6.963   4.778   2.213 -1.7272  0.6824 -1.2553
18823THY    CP257878   6.868   4.631   2.334  0.5542  0.1938  0.2669
18823THY    HP257879   6.852   4.693   2.423 -0.1612 -0.4323  1.0040
18823THY    HP357880   6.881   4.527   2.366  0.3171  0.0318  0.1860
18823THY    HP457881   6.773   4.630   2.280 -0.0921  1.2856 -0.8638
18823THY    CP357882   7.016   4.600   2.124 -0.4695 -0.3989  0.1115
18823THY    HP557883   7.109   4.633   2.077 -1.4047 -2.8912 -0.6096
18823THY    HP657884   6.930   4.600   2.056  0.2042 -1.2665  0.2046
18823THY    HP757885   7.035   4.496   2.151  1.0898 -0.1375  0.4474
18823THY    CA357886   7.150   4.607   2.444 -0.2827 -0.1389 -0.5263
18823THY    HA357887   7.079   4.533   2.482 -2.3467  2.1067  2.3854
18823THY    CA457888   7.271   4.625   2.515 -0.4820  0.1385  0.0460
18823THY    HA457889   7.303   4.554   2.591 -3.2386  0.9170 -0.4870
18823THY    CA557890   7.349   4.741   2.484  0.2089  0.2492  0.4728
18823THY    CM157891   7.484   4.753   2.545 -0.2805  0.3357 -0.1294
18823THY    HM157892   7.486   4.731   2.652  4.5230  0.0458 -2.5120
18823THY    HM257893   7.516   4.858   2.536 -2.5847  1.6069  0.7511
18823THY    HM357894   7.556   4.687   2.495  0.0365  1.1603 -0.4155
18823THY    CA657895   7.315   4.835   2.387  0.0037  0.3930  0.1005
18823THY    HA657896   7.368   4.928   2.369 -2.3824 -2.5574  1.0535
18824THY      O57897   3.343   4.078   3.789  0.1429 -0.3960 -0.3638
18824THY     HO57898   3.314   4.153   3.844 -0.1264 -1.4137  0.3093
18824THY    CA157899   3.321   4.121   3.664 -0.3046 -0.6995 -0.2333
18824THY    CA257900   3.351   4.048   3.550 -0.0732 -0.1725  0.2433
18824THY    CP157901   3.426   3.912   3.556  0.4987 -0.2951  0.1831
18824THY    HP157902   3.464   3.906   3.658 -0.5768  0.3047  2.3347
18824THY    CP257903   3.549   3.908   3.470 -0.1384  1.0344 -0.3681
18824THY    HP257904   3.605   3.816   3.493 -0.1546  1.1153 -0.3576
18824THY    HP357905   3.612   3.995   3.489 -0.5613  0.7777 -0.0013
18824THY    HP457906   3.520   3.915   3.364 -1.3584  1.4139  0.6138
18824THY    CP357907   3.333   3.793   3.535  0.5514  0.6987  0.7136
18824THY    HP557908   3.253   3.803   3.610 -1.8836 -1.4821 -0.8270
18824THY    HP657909   3.390   3.702   3.553 -0.9159  0.8437 -0.2163
18824THY    HP757910   3.289   3.786   3.435 -0.1966  1.1241 -1.2668
18824THY    CA357911   3.311   4.095   3.426  0.3712 -0.5009 -0.5119
18824THY    HA357912   3.321   4.037   3.335  2.1513 -1.5425  1.3399
18824THY    CA457913   3.228   4.201   3.420 -0.1129  0.6984  0.0185
18824THY    HA457914   3.186   4.227   3.324  1.3606  0.2234  0.7328
18824THY    CA557915   3.183   4.269   3.533  0.0245 -0.3054 -0.5069
18824THY    CM157916   3.083   4.374   3.525 -0.0906  0.6802  0.4551
18824THY    HM157917   3.131   4.467   3.557 -1.2173  1.2721  0.8547
18824THY    HM257918   3.007   4.346   3.600 -0.0558  0.0577 -1.4170
18824THY    HM357919   3.046   4.392   3.423  1.7911  0.2369  2.1772
18824THY    CA657920   3.235   4.230   3.655 -0.3266  0.5634 -0.1458
18824THY    HA657921   3.195   4.279   3.744  1.1946  1.9974 -1.3923
18825THY      O57922   5.133   3.735   6.982  0.0368  0.0243  0.0492
18825THY     HO57923   5.194   3.794   7.029 -0.0306 -0.3420  0.4177
18825THY    CA157924   5.032   3.819   6.954 -0.2918  0.3593  0.1453
18825THY    CA257925   4.923   3.780   6.873 -0.5049 -0.9041 -0.1415
18825THY    CP157926   4.917   3.628   6.830  0.2146  0.2853  0.2950
18825THY    HP157927   5.012   3.576   6.847  0.1500 -0.3086 -0.0187
18825THY    CP257928   4.884   3.624   6.681  0.1317 -0.1661 -0.4236
18825THY    HP257929   4.957   3.684   6.626 -0.5718 -0.3700  0.2653
18825THY    HP357930   4.790   3.674   6.655  1.5236 -1.2083  1.7913
18825THY    HP457931   4.898   3.521   6.645  0.9927  0.4842 -0.5422
18825THY    CP357932   4.805   3.548   6.908 -0.1687 -0.5829 -0.8544
18825THY    HP557933   4.790   3.445   6.875 -1.3312 -2.0914 -0.2346
18825THY    HP657934   4.710   3.600   6.892 -0.1871 -1.3206 -1.1041
18825THY    HP757935   4.830   3.555   7.015 -3.4047  0.2030  0.3948
18825THY    CA357936   4.817   3.861   6.845 -0.3600 -0.3390  0.9368
18825THY    HA357937   4.727   3.839   6.788 -1.9230  1.9388  0.9482
18825THY    CA457938   4.810   3.993   6.898 -0.0509  0.5554  0.3186
18825THY    HA457939   4.747   4.076   6.867  0.7566 -0.7633  0.4736
18825THY    CA557940   4.918   4.029   6.981 -0.2987 -0.1227 -0.5143
18825THY    CM157941   4.936   4.174   7.012  0.4748 -0.7289 -0.2567
18825THY    HM157942   5.004   4.192   7.096  0.9618 -1.3900  1.1398
18825THY    HM257943   4.847   4.231   7.037  2.4229 -0.1467  2.7484
18825THY    HM357944   4.971   4.234   6.927 -3.1483 -0.0398  3.2679
18825THY    CA657945   5.032   3.947   7.002 -0.4309 -0.5118 -0.1100
18825THY    HA657946   5.108   3.981   7.072 -0.5315  0.9112 -2.5176
18826THY      O57947   2.816   2.051   7.447 -0.2663 -0.0355 -0.1404
18826THY     HO57948   2.901   2.022   7.484  0.1133  0.0488  1.0132
18826THY    CA157949   2.820   2.161   7.366  0.5796 -0.3062  0.3234
18826THY    CA257950   2.711   2.197   7.287  0.5390  0.5864  1.4569
18826THY    CP157951   2.585   2.110   7.293 -0.0795 -0.0224  0.1235
18826THY    HP157952   2.581   2.049   7.383  2.3097 -1.2390 -2.0510
18826THY    CP257953   2.578   2.009   7.179  0.2683  0.1560 -0.0804
18826THY    HP257954   2.641   1.923   7.202 -0.7854  0.2999 -0.8254
18826THY    HP357955   2.614   2.059   7.088 -0.7982  1.0533  2.4594
18826THY    HP457956   2.477   1.971   7.162 -0.5681 -0.4632  2.2325
18826THY    CP357957   2.458   2.200   7.286  0.2154 -0.4143 -0.1963
18826THY    HP557958   2.464   2.272   7.203  0.4684 -0.5632 -0.3861
18826THY    HP657959   2.440   2.257   7.378 -2.5534 -1.1558  0.2578
18826THY    HP757960   2.372   2.133   7.277 -0.6465  2.3041  0.4289
18826THY    CA357961   2.730   2.308   7.202 -0.5111  0.5149  0.2231
18826THY    HA357962   2.658   2.353   7.134  0.5324  0.2369  1.5187
18826THY    CA457963   2.854   2.383   7.207 -1.2365 -0.0384  0.3269
18826THY    HA457964   2.858   2.477   7.151 -0.5331  0.0351  0.3397
18826THY    CA557965   2.955   2.341   7.287  0.0146 -0.3201  1.0003
18826THY    CM157966   3.079   2.417   7.290  0.0965 -0.7083 -0.1749
18826THY    HM157967   3.063   2.510   7.346  0.7373  1.2429 -1.1799
18826THY    HM257968   3.107   2.441   7.187  1.1931 -0.3605  0.1016
18826THY    HM357969   3.170   2.365   7.322  0.1110  0.7798  0.7111
18826THY    CA657970   2.939   2.234   7.374  0.0450  0.3576  0.6057
18826THY    HA657971   3.013   2.198   7.445  2.4299 -2.2064  0.1236
18827THY      O57972   5.541   3.321   6.152 -0.9380  0.0222 -0.3199
18827THY     HO57973   5.514   3.247   6.209 -3.4050 -0.9385 -0.2561
18827THY    CA157974   5.429   3.404   6.148 -0.3658  0.6608  0.2954
18827THY    CA257975   5.391   3.463   6.029  0.1353 -0.2000  0.5267
18827THY    CP157976   5.463   3.425   5.890 -0.4808  0.0347 -0.1510
18827THY    HP157977   5.557   3.372   5.907 -0.7360 -2.0130 -1.4100
18827THY    CP257978   5.500   3.557   5.812 -0.3455  0.3707  0.0917
18827THY    HP257979   5.407   3.590   5.765 -0.0009  0.7096  1.6326
18827THY    HP357980   5.570   3.532   5.732  0.0196  1.3752 -2.3642
18827THY    HP457981   5.548   3.635   5.873 -0.7718 -0.3537  0.9351
18827THY    CP357982   5.368   3.331   5.819  0.6209  0.1286 -0.6212
18827THY    HP557983   5.367   3.242   5.882  0.3002 -1.3553 -1.7041
18827THY    HP657984   5.409   3.292   5.725  1.4515  0.6276 -0.9870
18827THY    HP757985   5.270   3.379   5.812  1.0608 -1.1531  0.1332
18827THY    CA357986   5.279   3.552   6.031  0.8952 -0.4011  0.3253
18827THY    HA357987   5.260   3.609   5.940  0.6864 -1.2751 -1.0672
18827THY    CA457988   5.202   3.566   6.151  0.0080  0.3855  0.1136
18827THY    HA457989   5.109   3.622   6.149  0.2961 -3.4658  0.6832
18827THY    CA557990   5.238   3.493   6.261 -0.8523  0.3466 -0.1332
18827THY    CM157991   5.145   3.500   6.385  0.1798 -1.4730  0.3064
18827THY    HM157992   5.161   3.584   6.453  0.3174  1.5502 -1.9939
18827THY    HM257993   5.162   3.406   6.439  4.3424 -1.1854  1.0435
18827THY    HM357994   5.040   3.481   6.356 -0.4553  1.8992 -2.1194
18827THY    CA657995   5.351   3.419   6.259 -1.1445 -0.1235  0.2165
18827THY    HA657996   5.383   3.371   6.352 -0.3548  0.7432  2.3129
18828THY      O57997   8.508   4.529   5.701  0.5014 -0.0863 -0.6037
18828THY     HO57998   8.483   4.526   5.794 -1.0854 -0.5023 -0.9444
18828THY    CA157999   8.595   4.439   5.664  0.2246  0.5721 -0.7217
18828THY    CA258000   8.643   4.423   5.537  0.8080  0.2480  0.6948
18828THY    CP158001   8.601   4.515   5.418  0.6395 -0.7204  0.2817
18828THY    HP158002   8.536   4.597   5.450  1.1550  2.4269 -0.4244
18828THY    CP258003   8.529   4.440   5.300 -0.2732  0.1096 -0.1892
18828THY    HP258004   8.592   4.369   5.245  1.1310  0.5667  0.6497
18828THY    HP358005   8.496   4.511   5.223  0.8992 -0.2995 -0.0536
18828THY    HP458006   8.446   4.386   5.345  0.4061  1.0037 -0.5119
18828THY    CP358007   8.732   4.574   5.355  0.2660 -0.1846 -0.2594
18828THY    HP558008   8.791   4.630   5.429 -1.3513 -0.1471  1.4859
18828THY    HP658009   8.699   4.640   5.274  0.5251  0.8694  1.2129
18828THY    HP758010   8.783   4.488   5.310 -1.4788 -2.1653 -0.3180
18828THY    CA358011   8.700   4.296   5.506  0.4698 -0.2485 -0.2247
18828THY    HA358012   8.736   4.279   5.405 -1.3846 -1.0593  0.3707
18828THY    CA458013   8.733   4.201   5.604 -0.1244 -0.3013 -0.0855
18828THY    HA458014   8.794   4.113   5.585 -2.0261 -0.7572 -1.3441
18828THY    CA558015   8.694   4.228   5.737  0.3898 -0.5907 -0.0251
18828THY    CM158016   8.735   4.136   5.850 -0.1552  0.2704 -0.1451
18828THY    HM158017   8.662   4.064   5.888 -0.2565 -0.9202 -0.7024
18828THY    HM258018   8.767   4.196   5.936  0.0666 -0.1814  0.4063
18828THY    HM358019   8.821   4.079   5.814  0.2157 -1.6495  1.5132
18828THY    CA658020   8.620   4.344   5.764  0.7572 -0.1996  0.0828
18828THY    HA658021   8.587   4.346   5.867 -1.0735 -0.6019 -3.1834
18829THY      O58022   7.506   1.363   2.255  0.3863 -0.1850  0.0392
18829THY     HO58023   7.412   1.388   2.250  0.0706  1.1234 -0.7483
18829THY    CA158024   7.505   1.251   2.182  0.7149 -0.7280 -0.0426
18829THY    CA258025   7.606   1.224   2.088  0.2065  0.0517  0.0727
18829THY    CP158026   7.724   1.328   2.076  0.0260  0.1078  0.2165
18829THY    HP158027   7.725   1.401   2.158 -0.7592 -0.2608  0.6557
18829THY    CP258028   7.712   1.409   1.936 -0.6671  0.1111 -0.3493
18829THY    HP258029   7.734   1.347   1.848  2.6194 -1.9299  3.2785
18829THY    HP358030   7.779   1.496   1.935 -0.4164 -1.8106 -0.5113
18829THY    HP458031   7.611   1.448   1.925 -0.4102  0.7940  0.5490
18829THY    CP358032   7.869   1.265   2.095 -0.1965  0.4602 -0.3472
18829THY    HP558033   7.881   1.175   2.034  0.1533  0.7002 -0.4622
18829THY    HP658034   7.873   1.229   2.198 -1.7135  0.9866  0.8505
18829THY    HP758035   7.951   1.337   2.086 -0.0848 -1.9702 -0.6784
18829THY    CA358036   7.594   1.107   2.003  1.2859 -0.2784  0.0289
18829THY    HA358037   7.678   1.070   1.945  1.6434  0.6404 -0.6182
18829THY    CA458038   7.474   1.034   2.011  0.4672  0.8867  0.1620
18829THY    HA458039   7.446   0.941   1.962 -0.1446  0.8819  0.3467
18829THY    CA558040   7.377   1.068   2.102 -0.2230  0.1155  0.3663
18829THY    CM158041   7.254   0.987   2.098  0.1845 -0.2946 -0.1273
18829THY    HM158042   7.277   0.880   2.095 -2.2716 -0.5991 -0.7087
18829THY    HM258043   7.203   1.018   2.006  0.1181  0.0700  0.8928
18829THY    HM358044   7.201   1.007   2.192  3.1902  1.9456 -1.8750
18829THY    CA658045   7.388   1.184   2.187  0.3596 -0.2616  0.2798
18829THY    HA658046   7.312   1.215   2.258  0.8778  0.3965  0.0650
18830THY      O58047   7.114   8.242   6.722  0.0875  0.4030  0.4162
18830THY     HO58048   7.124   8.180   6.796  3.3341 -0.0920  0.1560
18830THY    CA158049   6.978   8.280   6.710  0.1029  0.8394  0.2307
18830THY    CA258050   6.929   8.360   6.603  0.0789 -0.1171  0.1566
18830THY    CP158051   7.017   8.391   6.481 -0.6109  0.3850  0.9673
18830THY    HP158052   7.115   8.411   6.525 -0.3636 -0.4370  1.6249
18830THY    CP258053   6.974   8.515   6.409  0.0712 -0.1549 -0.3379
18830THY    HP258054   6.967   8.590   6.489  0.4970 -0.3273 -0.1077
18830THY    HP358055   6.874   8.504   6.365 -0.9472  2.1946 -1.0179
18830THY    HP458056   7.050   8.554   6.340  0.3478  0.7851  0.8262
18830THY    CP358057   7.024   8.261   6.388 -0.1376  0.6497 -0.0471
18830THY    HP558058   7.076   8.187   6.450  0.2516  0.7455  0.3095
18830THY    HP658059   7.086   8.284   6.301  0.2321  0.6610 -0.9416
18830THY    HP758060   6.922   8.226   6.367  0.0826 -0.0893 -0.2649
18830THY    CA358061   6.786   8.385   6.598 -0.9901 -0.5680 -0.0039
18830THY    HA358062   6.736   8.436   6.517  1.2338 -1.8462  0.2812
18830THY    CA458063   6.707   8.339   6.700 -0.4219 -0.5041  0.8519
18830THY    HA458064   6.599   8.347   6.704 -0.4580 -0.6175  0.4657
18830THY    CA558065   6.765   8.260   6.801  0.4896 -0.6804  0.0817
18830THY    CM158066   6.671   8.208   6.908 -0.0249  0.0361  0.6979
18830THY    HM158067   6.681   8.101   6.928 -1.3687  0.6569  0.6651
18830THY    HM258068   6.571   8.229   6.869  1.2788 -2.9394  1.9854
18830THY    HM358069   6.686   8.259   7.004 -0.2464  1.9578 -2.5693
18830THY    CA658070   6.899   8.230   6.804 -0.2349  0.4910 -0.0954
18830THY    HA658071   6.936   8.163   6.881 -3.8759  2.4260 -0.1310
18831THY      O58072   8.277   0.701   6.035  0.3615 -0.2999 -0.1103
18831THY     HO58073   8.251   0.635   5.968  0.8804  0.0238 -0.6515
18831THY    CA158074   8.307   0.632   6.149 -0.5961  0.7631  0.4047
18831THY    CA258075   8.404   0.672   6.237 -0.2273  0.4619 -0.5695
18831THY    CP158076   8.474   0.809   6.211 -0.5281  0.2411  0.2594
18831THY    HP158077   8.414   0.879   6.152  1.2934  2.1837  3.8009
18831THY    CP258078   8.603   0.799   6.121  0.7569  0.1995  0.3763
18831THY    HP258079   8.639   0.901   6.105 -1.4424 -1.1357  1.0228
18831THY    HP358080   8.575   0.760   6.023 -0.3388  0.7618 -0.3076
18831THY    HP458081   8.679   0.737   6.169  0.5210  0.8227  0.5604
18831THY    CP358082   8.508   0.881   6.342 -0.8948 -0.0545  0.5481
18831THY    HP558083   8.602   0.843   6.382 -0.1739 -0.9254  1.3820
18831THY    HP658084   8.431   0.858   6.417  1.2148  1.7201 -1.2777
18831THY    HP758085   8.517   0.990   6.331 -0.9294  0.1070  0.5685
18831THY    CA358086   8.437   0.589   6.347 -0.1224  0.1195 -0.8616
18831THY    HA358087   8.523   0.613   6.409 -0.3633 -0.1441  0.7560
18831THY    CA458088   8.372   0.469   6.361 -0.0762 -0.4183 -0.8098
18831THY    HA458089   8.396   0.409   6.448  1.2120  0.5564  1.0265
18831THY    CA558090   8.268   0.432   6.273 -0.2940 -0.1673 -0.6205
18831THY    CM158091   8.186   0.311   6.292 -0.0049  0.3769 -0.1639
18831THY    HM158092   8.080   0.339   6.306  0.4078  0.2110  1.5710
18831THY    HM258093   8.234   0.246   6.366  1.9079  1.9330  2.8144
18831THY    HM358094   8.185   0.253   6.199 -0.7487 -0.0182  0.4587
18831THY    CA658095   8.249   0.509   6.164 -0.2138 -0.7009  0.1746
18831THY    HA658096   8.165   0.482   6.101 -0.3884  0.0775 -1.1733
18832THY      O58097   1.755   8.074   7.193 -0.0291 -0.3194  0.7043
18832THY     HO58098   1.689   8.145   7.198 -2.0758 -1.7291 -0.9545
18832THY    CA158099   1.807   8.083   7.318 -0.7475  0.3389  0.7160
18832THY    CA258100   1.948   8.071   7.337 -0.3060 -0.7549  0.4311
18832THY    CP158101   2.046   8.005   7.235  0.0973 -0.1252 -0.4030
18832THY    HP158102   1.997   7.966   7.145  0.7674 -0.7884  0.2663
18832THY    CP258103   2.123   7.889   7.294  0.2792 -0.2748  0.4698
18832THY    HP258104   2.167   7.844   7.204 -0.1537 -1.2145  1.8577
18832THY    HP358105   2.053   7.814   7.333  1.4199 -0.0156 -0.4924
18832THY    HP458106   2.203   7.908   7.366 -1.4312  1.7665  0.2545
18832THY    CP358107   2.148   8.114   7.190 -0.1935  1.3868  1.3010
18832THY    HP558108   2.087   8.196   7.149  1.3812  1.5450  2.6191
18832THY    HP658109   2.222   8.080   7.116  0.9363  0.8631  4.5125
18832THY    HP758110   2.211   8.154   7.271  1.0061  1.6343 -0.9774
18832THY    CA358111   1.997   8.117   7.456  0.2309  0.1585 -0.6248
18832THY    HA358112   2.102   8.108   7.480  0.0407  0.8737 -0.9742
18832THY    CA458113   1.910   8.164   7.558 -0.7333  0.4271 -0.3946
18832THY    HA458114   1.955   8.188   7.654  0.8559 -0.6478  1.1744
18832THY    CA558115   1.777   8.186   7.537  0.7395  0.0490  0.4754
18832THY    CM158116   1.676   8.239   7.635 -0.1605  0.1216 -0.7484
18832THY    HM158117   1.707   8.227   7.739  1.1089 -0.0075  1.0637
18832THY    HM258118   1.572   8.212   7.613  0.5353 -1.8296 -2.1423
18832THY    HM358119   1.691   8.345   7.613  0.8995 -0.6863 -1.0480
18832THY    CA658120   1.725   8.147   7.412 -0.6141 -0.4662 -0.4174
18832THY    HA658121   1.621   8.168   7.390 -0.8074  0.6256 -0.1851
18833THY      O58122   5.789   1.096   4.487 -0.2238  0.2187  0.0530
18833THY     HO58123   5.779   1.104   4.391 -0.4759 -0.0905 -2.9343
18833THY    CA158124   5.788   1.223   4.533 -0.1798 -0.1095 -0.8036
18833THY    CA258125   5.729   1.247   4.654 -0.0754 -0.1262 -0.7130
18833THY    CP158126   5.700   1.132   4.743 -0.5560 -0.1439  0.1992
18833THY    HP158127   5.653   1.052   4.684 -4.3266  0.1739  1.9641
18833THY    CP258128   5.592   1.161   4.841  0.4909  0.7922  0.2268
18833THY    HP258129   5.497   1.192   4.795  1.0177 -1.1514 -0.8132
18833THY    HP358130   5.622   1.245   4.905  0.0395  0.5346  0.5892
18833THY    HP458131   5.567   1.076   4.906  0.4495  1.6660  0.8955
18833THY    CP358132   5.822   1.069   4.814 -0.5199 -0.2485  0.0232
18833THY    HP558133   5.801   0.993   4.890  1.1806  0.7962  0.5317
18833THY    HP658134   5.887   1.141   4.866  1.2457 -1.4674 -0.6182
18833THY    HP758135   5.889   1.024   4.741  0.3612  2.1701 -2.8903
18833THY    CA358136   5.713   1.385   4.690  0.3880  0.4795  0.6797
18833THY    HA358137   5.674   1.412   4.788  1.0918  0.9250  0.1191
18833THY    CA458138   5.768   1.486   4.612 -0.0079 -0.1742 -0.3440
18833THY    HA458139   5.739   1.589   4.630 -1.5662 -0.5034 -0.6981
18833THY    CA558140   5.828   1.453   4.490  0.2186  0.1461 -0.0092
18833THY    CM158141   5.865   1.567   4.395  0.3793  0.3375 -0.0906
18833THY    HM158142   5.936   1.637   4.440  0.6609 -0.6491  0.2603
18833THY    HM258143   5.774   1.620   4.364 -1.2884  2.3481 -1.5630
18833THY    HM358144   5.919   1.539   4.304 -0.5296 -0.4361  0.6180
18833THY    CA658145   5.838   1.323   4.454 -0.3794 -0.0034 -0.5743
18833THY    HA658146   5.876   1.304   4.354 -0.6899 -0.8813  2.7201
18834THY      O58147   0.459   2.127   5.959  0.5148 -0.3721 -0.7910
18834THY     HO58148   0.459   2.056   6.027  0.5166  2.8028  2.0116
18834THY    CA158149   0.551   2.210   6.002  0.1884 -0.3720 -0.3466
18834THY    CA258150   0.572   2.340   5.948  0.3602 -0.2363  0.4903
18834THY    CP158151   0.481   2.392   5.832  0.0371 -0.2967 -0.2208
18834THY    HP158152   0.393   2.330   5.818  0.3971  0.0831 -0.8253
18834THY    CP258153   0.552   2.362   5.698  0.0502 -0.2648  0.4418
18834THY    HP258154   0.612   2.272   5.716 -2.2729  2.2898 -0.7139
18834THY    HP358155   0.615   2.443   5.662  1.5557 -0.8908 -0.9423
18834THY    HP458156   0.472   2.351   5.624 -0.1536 -0.0699  0.6150
18834THY    CP358157   0.433   2.538   5.838 -0.3360 -0.5025 -0.0851
18834THY    HP558158   0.365   2.538   5.924  1.0129  0.6164  1.0036
18834THY    HP658159   0.373   2.576   5.755 -0.1835 -0.6067 -0.0695
18834THY    HP758160   0.517   2.608   5.851 -0.3912  1.9897 -0.3850
18834THY    CA358161   0.676   2.422   5.992  0.5340 -0.1331 -0.2795
18834THY    HA358162   0.694   2.522   5.952 -2.6014  2.8806  1.7311
18834THY    CA458163   0.762   2.373   6.101  0.5560  0.0740  0.6008
18834THY    HA458164   0.848   2.432   6.129  0.1993 -1.9042  2.1803
18834THY    CA558165   0.734   2.250   6.155  0.5425  0.0030 -0.2206
18834THY    CM158166   0.813   2.193   6.268  0.3545 -0.5567  0.2729
18834THY    HM158167   0.919   2.179   6.246  0.2890  0.7904 -3.5142
18834THY    HM258168   0.781   2.090   6.288  1.7513 -1.7968 -0.4346
18834THY    HM358169   0.805   2.251   6.361 -2.2664  1.6390 -3.2489
18834THY    CA658170   0.625   2.170   6.109 -0.0802 -0.8741 -0.0303
18834THY    HA658171   0.595   2.086   6.171  0.9000  1.7607  1.4298
18835THY      O58172   4.312   7.119   5.581 -0.1171 -0.2729  0.0198
18835THY     HO58173   4.272   7.207   5.571  3.0168 -1.2839  1.5004
18835THY    CA158174   4.221   7.069   5.679  0.0568 -0.6138  0.0837
18835THY    CA258175   4.277   6.985   5.780  0.1200  0.2644 -0.2234
18835THY    CP158176   4.430   6.949   5.790  0.1783  0.1250  0.5499
18835THY    HP158177   4.478   6.961   5.692 -0.7498 -0.5153 -0.7646
18835THY    CP258178   4.458   6.808   5.831  0.1097 -0.8410  0.3418
18835THY    HP258179   4.551   6.778   5.780  0.4698  0.3827 -0.7051
18835THY    HP358180   4.380   6.737   5.801 -0.0649  1.2506 -0.3943
18835THY    HP458181   4.479   6.785   5.936  0.9069 -0.7537  1.4231
18835THY    CP358182   4.488   7.055   5.878 -0.0490 -0.1368 -0.2823
18835THY    HP558183   4.483   7.147   5.817 -2.1148  0.8209  0.3077
18835THY    HP658184   4.586   7.019   5.908 -1.1599  0.6652 -2.8898
18835THY    HP758185   4.422   7.073   5.963  0.0345  0.2927 -1.9211
18835THY    CA358186   4.189   6.952   5.884  0.0740 -0.0198  0.0710
18835THY    HA358187   4.223   6.897   5.971  1.8938  0.9834  2.5806
18835THY    CA458188   4.052   6.994   5.883 -0.5971  0.0624  0.0120
18835THY    HA458189   3.986   6.954   5.960 -0.8307  0.1337  0.5355
18835THY    CA558190   3.999   7.063   5.773 -0.0848  0.2432 -0.4590
18835THY    CM158191   3.850   7.095   5.769 -0.3041  0.4508  0.2491
18835THY    HM158192   3.817   7.109   5.665 -1.2697  0.5055 -1.3999
18835THY    HM258193   3.825   7.187   5.823 -2.8422  0.9995 -0.6821
18835THY    HM358194   3.805   7.010   5.822  0.4402  0.3164 -0.2464
18835THY    CA658195   4.087   7.111   5.678  0.0922  0.0621 -0.8879
18835THY    HA658196   4.046   7.156   5.587  0.8912  0.8769  1.7065
18836THY      O58197   1.550   1.759   1.911 -0.2747 -0.1438  0.2403
18836THY     HO58198   1.635   1.805   1.910  0.3090 -1.1582 -0.8032
18836THY    CA158199   1.447   1.849   1.943 -0.4648 -0.0264  0.2421
18836THY    CA258200   1.320   1.802   1.965 -0.4633  0.4987  0.5574
18836THY    CP158201   1.286   1.663   1.942 -0.0969  0.2324 -0.1375
18836THY    HP158202   1.371   1.597   1.919  1.0379  1.4146  0.8555
18836THY    CP258203   1.207   1.653   1.810 -0.8050  0.4107 -0.1467
18836THY    HP258204   1.275   1.684   1.729  0.5275  2.6205  3.3026
18836THY    HP358205   1.118   1.715   1.797 -0.7262  0.3459 -0.0445
18836THY    HP458206   1.177   1.548   1.803 -0.3174  1.4688 -0.3676
18836THY    CP358207   1.202   1.597   2.051 -0.0639  0.8162 -0.1139
18836THY    HP558208   1.185   1.491   2.027  1.3503 -0.5927 -0.0482
18836THY    HP658209   1.108   1.653   2.056 -1.2699 -2.8842 -1.5032
18836THY    HP758210   1.251   1.605   2.149 -3.1957  2.4704  0.3602
18836THY    CA358211   1.219   1.900   1.982  0.3405 -0.0523  0.1471
18836THY    HA358212   1.114   1.871   1.986 -0.4622  1.8237  2.9106
18836THY    CA458213   1.248   2.036   1.999 -0.2871 -0.3862 -0.4495
18836THY    HA458214   1.165   2.106   2.000 -2.1009  1.9143 -2.4419
18836THY    CA558215   1.385   2.078   1.988  0.2111  0.6939  0.1827
18836THY    CM158216   1.421   2.222   1.996 -0.8192  0.4197  0.2884
18836THY    HM158217   1.407   2.253   2.100  0.5398  1.5206 -2.4413
18836THY    HM258218   1.378   2.285   1.917 -0.3349 -0.3839 -0.3676
18836THY    HM358219   1.530   2.226   1.988 -0.9613 -1.9564  0.4962
18836THY    CA658220   1.483   1.981   1.958  0.5878 -1.1546 -0.8411
18836THY    HA658221   1.587   2.009   1.950  0.3771 -2.0101 -0.2903
18837THY      O58222   4.600   7.756   8.161 -1.0882 -1.0661 -0.4402
18837THY     HO58223   4.576   7.850   8.166  0.9365 -0.4832  0.1099
18837THY    CA158224   4.591   7.724   8.031  0.4074  0.5153  0.2068
18837THY    CA258225   4.687   7.639   7.975 -0.4068  1.1264 -0.6208
18837THY    CP158226   4.801   7.584   8.053  0.2541  0.2818  0.2370
18837THY    HP158227   4.801   7.615   8.158  2.3578  1.1486 -2.3684
18837THY    CP258228   4.937   7.628   7.999 -0.3967  0.8219  0.7976
18837THY    HP258229   4.945   7.736   7.984 -1.2741 -0.5096  0.7000
18837THY    HP358230   4.950   7.590   7.896  1.4037  0.9180  1.0512
18837THY    HP458231   5.023   7.598   8.059 -0.8407  0.6632 -0.8831
18837THY    CP358232   4.796   7.435   8.063 -0.0319  0.5015  0.5025
18837THY    HP558233   4.703   7.406   8.112  0.3938 -0.0684 -2.0264
18837THY    HP658234   4.876   7.396   8.128  1.1494 -0.6964  0.8382
18837THY    HP758235   4.804   7.384   7.966  2.3017  0.4150  0.9185
18837THY    CA358236   4.676   7.624   7.836 -0.0630  0.7706  1.1338
18837THY    HA358237   4.742   7.563   7.776 -2.7138 -0.5957 -0.5811
18837THY    CA458238   4.564   7.670   7.764  0.1158 -0.1412 -0.3989
18837THY    HA458239   4.555   7.656   7.657 -1.0717  0.2082 -2.9922
18837THY    CA558240   4.467   7.742   7.825 -0.0385 -0.2630 -0.9671
18837THY    CM158241   4.349   7.809   7.760 -0.5785 -0.1112  0.7326
18837THY    HM158242   4.368   7.917   7.761  3.7960 -0.9680  0.1714
18837THY    HM258243   4.255   7.793   7.813 -0.4932 -0.4710 -1.2586
18837THY    HM358244   4.345   7.773   7.656 -1.1849  0.9379 -2.6233
18837THY    CA658245   4.483   7.776   7.962  0.5987 -0.2571 -0.0993
18837THY    HA658246   4.405   7.837   8.007 -1.2250 -1.5113 -1.3709
18838THY      O58247   1.055   8.650   7.716 -0.4097  0.1648 -0.0098
18838THY     HO58248   0.981   8.614   7.767  1.6010  3.2798 -0.0742
18838THY    CA158249   1.077   8.576   7.602 -1.4037  0.8223 -0.4092
18838THY    CA258250   1.208   8.561   7.541  0.3711  0.1619  0.0981
18838THY    CP158251   1.329   8.635   7.604  0.1323 -0.1527  0.3967
18838THY    HP158252   1.305   8.727   7.658  2.8088 -0.1259  1.1640
18838THY    CP258253   1.426   8.682   7.494  0.6607 -0.4740  0.4992
18838THY    HP258254   1.476   8.598   7.445  0.5207  0.1952  0.0176
18838THY    HP358255   1.501   8.743   7.545  0.7996  1.7239 -1.3704
18838THY    HP458256   1.377   8.740   7.415 -1.9488  0.2298 -0.5628
18838THY    CP358257   1.398   8.548   7.704  0.7272  0.1877  0.5234
18838THY    HP558258   1.330   8.506   7.779  2.4858  2.9446  2.3287
18838THY    HP658259   1.476   8.608   7.752  1.7694 -1.1346  0.2808
18838THY    HP758260   1.446   8.461   7.657  1.1057  1.2783  0.1284
18838THY    CA358261   1.218   8.471   7.431  0.6267 -0.3746  1.0949
18838THY    HA358262   1.313   8.450   7.383  1.5438  1.5630  0.5952
18838THY    CA458263   1.106   8.414   7.373 -0.0253  0.3806 -0.5094
18838THY    HA458264   1.118   8.360   7.280  0.7953  0.5509 -0.6365
18838THY    CA558265   0.983   8.445   7.429  0.8677  0.6975 -0.1113
18838THY    CM158266   0.854   8.410   7.349 -0.6507  0.2165  0.5161
18838THY    HM158267   0.789   8.498   7.342 -1.7422  0.1118 -0.2772
18838THY    HM258268   0.795   8.335   7.403  1.7308 -0.8450 -2.2900
18838THY    HM358269   0.876   8.360   7.254 -2.6039 -0.3332  0.5820
18838THY    CA658270   0.968   8.523   7.546 -0.2147 -0.4442  0.3278
18838THY    HA658271   0.868   8.545   7.582  0.4756  3.2629 -1.7548
18839THY      O58272   7.529   8.967   5.873  0.1471 -0.2768  0.4976
18839THY     HO58273   7.547   8.893   5.813 -0.5056 -0.2094  0.2762
18839THY    CA158274   7.438   9.051   5.826  0.6732 -0.2666  0.0242
18839THY    CA258275   7.395   9.156   5.911 -0.3869 -0.4161  0.0528
18839THY    CP158276   7.476   9.185   6.043  0.0775 -0.5644  0.0395
18839THY    HP158277   7.581   9.154   6.034  0.0471  2.1167 -1.1273
18839THY    CP258278   7.417   9.114   6.166  0.1191 -0.4714  0.0647
18839THY    HP258279   7.430   9.007   6.146 -1.6348 -1.3052 -0.0158
18839THY    HP358280   7.309   9.130   6.176  0.2707  0.9531  0.3446
18839THY    HP458281   7.464   9.146   6.260 -1.3217  0.5411 -0.6895
18839THY    CP358282   7.475   9.329   6.080  0.1559 -0.4075  0.0800
18839THY    HP558283   7.565   9.354   6.138  1.0620 -2.8023  2.9109
18839THY    HP658284   7.378   9.357   6.122 -0.2185 -0.2994 -1.3291
18839THY    HP758285   7.488   9.393   5.992 -1.4323 -0.6678  0.0786
18839THY    CA358286   7.294   9.234   5.862  1.0531 -0.2003 -0.5875
18839THY    HA358287   7.262   9.319   5.921 -0.4189 -0.9441 -0.5784
18839THY    CA458288   7.223   9.198   5.749  0.6436 -0.1327 -0.4333
18839THY    HA458289   7.134   9.258   5.730 -0.0201  2.7376 -0.3820
18839THY    CA558290   7.265   9.091   5.673  0.4991  0.0803 -0.2870
18839THY    CM158291   7.187   9.064   5.543 -0.0896 -0.1861  0.1731
18839THY    HM158292   7.186   9.157   5.485 -2.2787  0.9008  0.9041
18839THY    HM258293   7.083   9.028   5.553 -0.4317 -1.1308  0.8672
18839THY    HM358294   7.237   8.991   5.478 -0.3355 -0.4296  0.2189
18839THY    CA658295   7.382   9.023   5.702  0.3695 -0.7706  0.9313
18839THY    HA658296   7.415   8.930   5.657  0.3561  3.9817 -1.6793
18840THY      O58297   1.614   1.438   1.868 -0.4407  0.3619  0.4295
18840THY     HO58298   1.571   1.483   1.794  1.4371  0.0314  1.8140
18840THY    CA158299   1.530   1.342   1.911  0.1165 -0.5583 -0.4336
18840THY    CA258300   1.558   1.268   2.024 -0.6090 -1.2704  0.3366
18840THY    CP158301   1.683   1.298   2.109  0.2293  0.4326 -0.4617
18840THY    HP158302   1.726   1.395   2.079  1.3205  0.2565 -0.9914
18840THY    CP258303   1.790   1.190   2.088  1.0806  0.6384 -0.5179
18840THY    HP258304   1.746   1.097   2.123  1.8891  0.4889 -0.9684
18840THY    HP358305   1.883   1.221   2.139 -1.1683  3.0652  2.9881
18840THY    HP458306   1.816   1.183   1.982 -0.4185  0.0838  1.4822
18840THY    CP358307   1.656   1.312   2.254  0.3328  0.4161 -0.3098
18840THY    HP558308   1.639   1.214   2.300  2.0224 -2.0432 -1.8751
18840THY    HP658309   1.566   1.371   2.270  0.4295 -1.2275  0.3200
18840THY    HP758310   1.743   1.360   2.301 -1.8409  3.9141  0.6071
18840THY    CA358311   1.481   1.152   2.044 -0.1912 -0.4674 -0.0820
18840THY    HA358312   1.505   1.093   2.132 -2.4996  1.8409  2.1124
18840THY    CA458313   1.364   1.131   1.966  0.1973  0.1860 -0.2212
18840THY    HA458314   1.305   1.042   1.989  1.7892  0.1673 -1.3289
18840THY    CA558315   1.328   1.220   1.859 -0.7248  0.0501  0.1366
18840THY    CM158316   1.203   1.215   1.780  0.5718 -0.7341 -0.1626
18840THY    HM158317   1.117   1.264   1.828 -2.0100 -2.5212 -2.5942
18840THY    HM258318   1.167   1.111   1.770 -1.2300 -1.4341  0.4895
18840THY    HM358319   1.214   1.246   1.675 -2.3947 -0.4871  2.1580
18840THY    CA658320   1.426   1.318   1.831  0.4306  0.6498  0.6951
18840THY    HA658321   1.397   1.383   1.749  0.0558 -0.4637 -0.8375
18841THY      O58322   3.099   1.909   4.727 -0.0385 -0.1437  0.6230
18841THY     HO58323   3.143   1.826   4.705 -0.2222 -2.3527  1.0673
18841THY    CA158324   3.142   1.952   4.849  0.0274  0.7177 -0.2919
18841THY    CA258325   3.195   2.079   4.859  0.2052  0.1043  0.5328
18841THY    CP158326   3.212   2.165   4.739 -0.0458 -0.3117 -0.2540
18841THY    HP158327   3.235   2.099   4.654 -0.2934  0.1385 -0.9233
18841THY    CP258328   3.325   2.270   4.744 -0.0163  0.3754  0.9512
18841THY    HP258329   3.339   2.287   4.637 -1.0334 -0.3588 -2.1167
18841THY    HP358330   3.412   2.222   4.791 -1.0812  1.2234 -0.2387
18841THY    HP458331   3.300   2.362   4.799  0.1466  2.3140 -0.1042
18841THY    CP358332   3.090   2.243   4.704 -0.3626 -0.8982  0.3146
18841THY    HP558333   3.109   2.307   4.617  2.7248  0.8794  2.0637
18841THY    HP658334   3.071   2.313   4.786 -0.7663 -0.2610 -0.5264
18841THY    HP758335   3.001   2.179   4.702 -0.5024  1.2124  0.3968
18841THY    CA358336   3.205   2.128   4.993 -0.2954 -0.9349 -0.2682
18841THY    HA358337   3.231   2.231   5.014 -0.4693 -0.9374 -0.2224
18841THY    CA458338   3.185   2.044   5.102  0.5643  0.2713 -0.0982
18841THY    HA458339   3.186   2.076   5.206 -1.7531  1.1236 -2.4687
18841THY    CA558340   3.147   1.911   5.079  0.5802 -0.6065  0.6787
18841THY    CM158341   3.126   1.815   5.195 -0.6095 -0.4471  1.1040
18841THY    HM158342   3.208   1.820   5.268 -1.1571  0.1004  2.9239
18841THY    HM258343   3.095   1.711   5.177 -2.1572  0.6373  1.3459
18841THY    HM358344   3.047   1.854   5.260 -0.5979 -0.4395  1.1142
18841THY    CA658345   3.127   1.867   4.952 -0.0876  0.6097 -0.6576
18841THY    HA658346   3.091   1.769   4.922  2.0696 -1.7800 -0.8352
18842THY      O58347   8.033   4.861   6.331 -0.0832  0.2843  0.1711
18842THY     HO58348   8.087   4.833   6.255  2.1986  1.2906  1.5532
18842THY    CA158349   8.136   4.871   6.419  0.0366  0.3835 -0.1826
18842THY    CA258350   8.134   4.927   6.553 -0.3641 -0.4544  0.2619
18842THY    CP158351   8.005   4.993   6.605 -0.0219  0.0479  0.2591
18842THY    HP158352   7.940   5.017   6.520 -1.8529  0.9169 -1.3645
18842THY    CP258353   8.033   5.130   6.655  0.4217  0.4491 -0.0258
18842THY    HP258354   7.937   5.167   6.691  0.9130  2.8816 -0.8943
18842THY    HP358355   8.072   5.197   6.577  1.1223  0.8163  0.0105
18842THY    HP458356   8.106   5.132   6.737  1.3852 -0.3637  2.7441
18842THY    CP358357   7.932   4.906   6.713  0.3704 -0.6388  0.1276
18842THY    HP558358   7.848   4.954   6.764 -0.9323 -3.2351  0.8072
18842THY    HP658359   7.995   4.877   6.798 -1.1954  0.7856  0.7318
18842THY    HP758360   7.891   4.813   6.673  0.3953  0.3647 -0.3170
18842THY    CA358361   8.250   4.921   6.628 -0.0158 -0.8736  0.2438
18842THY    HA358362   8.248   4.973   6.723 -2.5887 -0.9817  0.4464
18842THY    CA458363   8.361   4.842   6.586  0.0080 -0.0082 -0.2585
18842THY    HA458364   8.450   4.832   6.648  0.2569 -0.0947  1.1611
18842THY    CA558365   8.365   4.799   6.455 -0.4479  0.4284  0.7574
18842THY    CM158366   8.492   4.723   6.403 -0.6328  0.1182  0.2549
18842THY    HM158367   8.570   4.785   6.449 -1.4883 -0.0455  1.4744
18842THY    HM258368   8.518   4.705   6.298 -0.9761  0.3596 -1.9155
18842THY    HM358369   8.516   4.627   6.450 -0.2998  0.2075  0.3804
18842THY    CA658370   8.252   4.812   6.372  0.4183  0.6152 -1.0130
18842THY    HA658371   8.254   4.763   6.275 -1.7265  0.3339 -0.6690
18843THY      O58372   3.010   0.889   5.688 -0.4981  0.2703  0.5632
18843THY     HO58373   2.942   0.859   5.751  0.0894  1.1349  0.9926
18843THY    CA158374   3.061   1.014   5.727  0.0423  0.1451 -0.1046
18843THY    CA258375   3.171   1.075   5.660  0.1346  0.5735  1.2334
18843THY    CP158376   3.214   0.996   5.530 -0.5078  0.3111 -0.2004
18843THY    HP158377   3.131   0.940   5.484 -0.5552  0.7865 -0.5272
18843THY    CP258378   3.328   0.892   5.567  0.1511 -0.5982  0.4128
18843THY    HP258379   3.416   0.938   5.614  0.0579  0.9332 -0.8876
18843THY    HP358380   3.353   0.821   5.487 -0.7655 -1.1316  0.6669
18843THY    HP458381   3.275   0.826   5.637 -0.8381 -1.2803  0.4656
18843THY    CP358382   3.264   1.101   5.421  0.0721 -0.5732 -0.7844
18843THY    HP558383   3.201   1.191   5.429 -1.1278 -0.7211 -1.5841
18843THY    HP658384   3.248   1.061   5.320 -2.3059 -1.8255  2.8092
18843THY    HP758385   3.368   1.130   5.439 -0.3746 -1.2794  1.4605
18843THY    CA358386   3.233   1.182   5.722 -0.0485  0.0928 -0.4606
18843THY    HA358387   3.319   1.223   5.670 -1.1117 -0.5096  1.0868
18843THY    CA458388   3.184   1.233   5.841  0.0981  0.7700  0.1528
18843THY    HA458389   3.231   1.319   5.887  1.2776  2.2872 -1.2297
18843THY    CA558390   3.067   1.183   5.900 -0.6510  0.1990 -0.0542
18843THY    CM158391   3.018   1.250   6.017 -0.3952  0.0290  0.8023
18843THY    HM158392   3.088   1.230   6.100  0.8509 -1.3320 -0.7460
18843THY    HM258393   2.922   1.205   6.045  0.0393  0.2325 -0.0155
18843THY    HM358394   3.010   1.358   5.999 -2.7331  0.0429  0.6876
18843THY    CA658395   3.005   1.073   5.844 -0.1755  0.0741  0.2472
18843THY    HA658396   2.921   1.030   5.897 -1.1905 -2.3258 -0.8961
18844THY      O58397   9.136   7.575   7.558  0.0338  0.7852  0.2530
18844THY     HO58398   9.219   7.528   7.539 -0.7114 -1.9397 -0.1519
18844THY    CA158399   9.114   7.589   7.692 -0.3547  0.3579  0.0078
18844THY    CA258400   8.991   7.609   7.750 -0.3935 -0.5232  0.3963
18844THY    CP158401   8.863   7.608   7.665  0.0378 -0.2203  0.5224
18844THY    HP158402   8.890   7.587   7.561  1.8139  0.5809 -1.5809
18844THY    CP258403   8.783   7.741   7.665 -0.7967 -1.1245 -0.8710
18844THY    HP258404   8.745   7.770   7.763 -0.8779 -1.6029  0.7485
18844THY    HP358405   8.709   7.741   7.583 -0.1428 -1.7808  1.6222
18844THY    HP458406   8.860   7.817   7.648 -0.1308 -2.1077 -1.7306
18844THY    CP358407   8.766   7.510   7.720  0.5927  0.3216  0.3701
18844THY    HP558408   8.673   7.509   7.661  1.1972 -0.7803 -3.0075
18844THY    HP658409   8.731   7.525   7.823 -1.0153 -0.0728 -0.3994
18844THY    HP758410   8.820   7.415   7.710  1.2218  2.0476  0.5143
18844THY    CA358411   8.984   7.654   7.884 -0.2186 -1.2274 -0.5681
18844THY    HA358412   8.891   7.664   7.940  0.5231  0.1734 -1.2926
18844THY    CA458413   9.103   7.670   7.956  0.1234 -0.6220 -0.2576
18844THY    HA458414   9.106   7.691   8.063 -0.1146 -0.7359  0.3683
18844THY    CA558415   9.224   7.646   7.903 -0.1358  0.0638  0.2639
18844THY    CM158416   9.354   7.668   7.982 -0.2698  0.5894 -0.2073
18844THY    HM158417   9.340   7.658   8.091  1.4247  0.9188  0.7006
18844THY    HM258418   9.378   7.774   7.984  1.0304  2.5995 -0.4804
18844THY    HM358419   9.440   7.609   7.948  0.5400 -1.9383  2.2478
18844THY    CA658420   9.229   7.603   7.769 -0.0717  0.3858  0.6405
18844THY    HA658421   9.329   7.585   7.731  0.3529  2.3596 -1.7734
18845THY      O58422   1.046   5.443   3.444  0.5633  0.7088 -0.1647
18845THY     HO58423   1.143   5.445   3.451  0.6958 -0.3891 -1.4510
18845THY    CA158424   0.995   5.506   3.548  0.1261 -0.0516 -0.3696
18845THY    CA258425   0.868   5.566   3.538  0.3350 -0.3795  0.1196
18845THY    CP158426   0.786   5.567   3.401  0.2387 -0.6035 -0.4799
18845THY    HP158427   0.832   5.491   3.335 -0.6418  0.9473 -2.4501
18845THY    CP258428   0.804   5.707   3.333 -0.7158 -0.2689 -0.5036
18845THY    HP258429   0.717   5.750   3.282  0.4120 -1.2019  0.7858
18845THY    HP358430   0.868   5.692   3.245 -1.3372 -1.2717  2.0799
18845THY    HP458431   0.862   5.773   3.398 -0.9820  0.9427 -1.4235
18845THY    CP358432   0.638   5.529   3.407  0.3552  0.3260  0.3961
18845THY    HP558433   0.630   5.435   3.462  0.8046 -0.0772  0.1185
18845THY    HP658434   0.597   5.519   3.305 -0.5913  0.4404  2.4999
18845THY    HP758435   0.582   5.604   3.463 -1.2369 -1.5651  0.7102
18845THY    CA358436   0.816   5.623   3.657  0.2671 -0.2608 -0.4461
18845THY    HA358437   0.715   5.661   3.656  0.9217 -1.7512  1.3718
18845THY    CA458438   0.882   5.611   3.781  0.2325  0.8048 -0.5469
18845THY    HA458439   0.848   5.664   3.870  0.1798 -0.2728  1.3432
18845THY    CA558440   1.006   5.548   3.787  0.0020 -0.1292 -0.4258
18845THY    CM158441   1.088   5.536   3.918  1.0199 -0.6889  0.1915
18845THY    HM158442   1.195   5.551   3.899  1.5397 -1.6158 -3.6710
18845THY    HM258443   1.075   5.436   3.960 -0.1087 -0.6040  0.3628
18845THY    HM358444   1.062   5.618   3.985 -0.5132 -2.0788  0.8964
18845THY    CA658445   1.064   5.506   3.665 -0.5929 -0.0668 -0.3053
18845THY    HA658446   1.163   5.460   3.670 -0.1307  0.4338  0.7232
18846THY      O58447   8.366   4.976   3.908 -0.1341  0.8262  0.8516
18846THY     HO58448   8.365   5.067   3.941  0.6624  2.3931  0.3340
18846THY    CA158449   8.337   4.996   3.776 -0.4864  0.7711 -0.2550
18846THY    CA258450   8.365   4.902   3.673 -0.0029  0.2164 -0.2657
18846THY    CP158451   8.457   4.776   3.703 -0.2972 -0.2519  0.2710
18846THY    HP158452   8.457   4.740   3.806  4.0636  0.0351  0.5514
18846THY    CP258453   8.603   4.819   3.676  0.4389 -0.2774 -0.0738
18846THY    HP258454   8.641   4.867   3.767 -0.1101  0.5525 -1.1755
18846THY    HP358455   8.607   4.902   3.604  2.2355 -0.1453 -0.0063
18846THY    HP458456   8.666   4.735   3.647  2.0459  1.2956  0.5157
18846THY    CP358457   8.413   4.655   3.618  0.1260 -0.3314  0.0518
18846THY    HP558458   8.306   4.644   3.596  0.4278 -1.9615  0.1269
18846THY    HP658459   8.452   4.556   3.641 -0.3368 -1.7002 -0.4632
18846THY    HP758460   8.448   4.673   3.516  2.0380  0.1950 -0.4725
18846THY    CA358461   8.312   4.932   3.550 -0.0618 -0.3990  0.5545
18846THY    HA358462   8.329   4.858   3.472  0.6991  0.3755 -0.1105
18846THY    CA458463   8.235   5.049   3.527  0.6290 -0.5903  0.5663
18846THY    HA458464   8.197   5.054   3.426  1.7852 -1.1401 -1.0626
18846THY    CA558465   8.206   5.137   3.625 -0.1848  0.0989 -0.0240
18846THY    CM158466   8.119   5.254   3.602 -0.8814 -0.2024 -0.1038
18846THY    HM158467   8.072   5.235   3.504  0.1299 -0.7655  0.2183
18846THY    HM258468   8.178   5.346   3.609 -3.8134  1.2336  1.8501
18846THY    HM358469   8.040   5.256   3.677  0.5244  1.3360 -0.6315
18846THY    CA658470   8.260   5.116   3.753  0.5465  0.3664 -0.5180
18846THY    HA658471   8.227   5.182   3.832 -0.8883  0.9272 -1.8403
18847THY      O58472   9.002   8.316   2.507 -0.1930 -0.1850 -0.7118
18847THY     HO58473   8.950   8.371   2.445 -0.6999 -0.5977 -1.6379
18847THY    CA158474   8.934   8.203   2.546 -0.4430  0.2726 -0.4765
18847THY    CA258475   8.989   8.111   2.639 -0.4236  0.1765 -0.5680
18847THY    CP158476   9.130   8.118   2.682 -0.1926 -0.3220 -0.0472
18847THY    HP158477   9.173   8.212   2.647  2.4348  0.2486 -0.9532
18847THY    CP258478   9.211   8.010   2.614  0.0424 -0.1312  0.8028
18847THY    HP258479   9.202   8.006   2.505 -1.9830 -0.0612  1.9702
18847THY    HP358480   9.181   7.912   2.651 -0.1983  0.3449  1.0510
18847THY    HP458481   9.316   8.033   2.635  0.2350 -0.6910  0.4645
18847THY    CP358482   9.137   8.120   2.840 -0.7691 -0.1004  0.0243
18847THY    HP558483   9.240   8.139   2.872 -0.5346 -0.3249 -0.8161
18847THY    HP658484   9.090   8.030   2.882 -0.4199 -0.6870 -0.4440
18847THY    HP758485   9.072   8.202   2.871  0.2086  1.3561  0.2880
18847THY    CA358486   8.907   8.009   2.684 -0.7830  0.6698  0.4139
18847THY    HA358487   8.936   7.941   2.763 -0.5529 -0.5421 -0.9461
18847THY    CA458488   8.783   7.990   2.629 -0.2851  0.3784 -0.3176
18847THY    HA458489   8.723   7.910   2.672 -0.6790  1.9645  0.8018
18847THY    CA558490   8.732   8.075   2.532  0.0125  0.2890 -0.3543
18847THY    CM158491   8.590   8.061   2.478 -0.4891 -0.2773 -0.7225
18847THY    HM158492   8.531   8.154   2.476 -1.4495 -3.7507 -1.2883
18847THY    HM258493   8.535   7.990   2.541 -0.5447  0.4430 -0.0624
18847THY    HM358494   8.587   8.021   2.377 -0.3380  0.1206 -1.7647
18847THY    CA658495   8.808   8.186   2.496  0.5754 -0.1377 -0.8648
18847THY    HA658496   8.771   8.264   2.430 -0.3289 -0.6123 -1.6751
18848THY      O58497   2.540   7.562   1.737 -0.6271  0.3237 -0.6982
18848THY     HO58498   2.490   7.531   1.659 -1.4030  0.1632  0.8599
18848THY    CA158499   2.587   7.454   1.793 -0.4090 -0.7515  0.2342
18848THY    CA258500   2.532   7.399   1.910 -0.2886 -0.8085  0.3729
18848THY    CP158501   2.404   7.470   1.975 -0.0685  0.9381  0.0510
18848THY    HP158502   2.342   7.495   1.888  0.1058  0.5540 -0.7990
18848THY    CP258503   2.436   7.597   2.048  0.7609  0.3784 -0.6941
18848THY    HP258504   2.484   7.579   2.145  0.4627  0.8893  1.0184
18848THY    HP358505   2.346   7.654   2.074 -0.5481  3.0367 -3.6601
18848THY    HP458506   2.508   7.657   1.992  2.9115  3.0902 -0.5534
18848THY    CP358507   2.318   7.377   2.075 -0.0458 -0.0594  0.0706
18848THY    HP558508   2.276   7.302   2.007  1.9396 -3.2876  1.6511
18848THY    HP658509   2.232   7.433   2.116 -0.4875 -0.8504 -0.0187
18848THY    HP758510   2.373   7.328   2.156  0.3457 -1.3908 -1.7779
18848THY    CA358511   2.589   7.282   1.960  0.0060  0.0675  0.0945
18848THY    HA358512   2.553   7.231   2.049  0.7364  0.7005  0.6622
18848THY    CA458513   2.703   7.229   1.896  0.6014  0.2907  0.9888
18848THY    HA458514   2.742   7.133   1.927 -0.0057 -0.4698  0.4805
18848THY    CA558515   2.761   7.287   1.785 -0.3520 -0.2910 -0.4748
18848THY    CM158516   2.860   7.208   1.705 -0.5465  0.4156 -0.0204
18848THY    HM158517   2.913   7.120   1.742 -0.0703  2.3717  1.0136
18848THY    HM258518   2.933   7.271   1.654 -0.3788 -1.6160 -1.7853
18848THY    HM358519   2.798   7.183   1.619 -0.0298 -0.1427  0.6009
18848THY    CA658520   2.700   7.402   1.729 -0.3673  0.2762 -0.7316
18848THY    HA658521   2.735   7.449   1.638  0.1084  1.8351  2.1384
18849THY      O58522   4.597   5.717   2.784 -0.0606  0.5823 -0.0718
18849THY     HO58523   4.617   5.635   2.832 -0.0858  0.7087 -0.0045
18849THY    CA158524   4.564   5.812   2.876 -0.7838  0.1769 -0.1253
18849THY    CA258525   4.516   5.943   2.845 -0.0387  0.7130  0.3339
18849THY    CP158526   4.505   5.984   2.707 -0.2707  0.1756 -0.6400
18849THY    HP158527   4.502   5.891   2.648 -3.1176 -0.1384 -0.4587
18849THY    CP258528   4.632   6.064   2.675 -0.2776 -0.4129  0.0601
18849THY    HP258529   4.633   6.172   2.692  0.2526  0.0467 -0.0175
18849THY    HP358530   4.653   6.058   2.567 -3.1237 -1.0053 -1.4166
18849THY    HP458531   4.719   6.032   2.733  2.1637 -3.9424 -0.3037
18849THY    CP358532   4.386   6.076   2.671  0.6846 -0.2286 -0.1943
18849THY    HP558533   4.367   6.148   2.752  1.6719 -2.3031  2.5859
18849THY    HP658534   4.301   6.009   2.656  0.1847  0.0375  0.3718
18849THY    HP758535   4.396   6.130   2.577 -0.2416  0.7631  1.8134
18849THY    CA358536   4.490   6.038   2.946  0.0038  0.4586 -0.1250
18849THY    HA358537   4.467   6.142   2.923 -2.2235 -0.5277 -0.7710
18849THY    CA458538   4.506   5.997   3.081 -0.1404 -0.2841  0.2662
18849THY    HA458539   4.493   6.075   3.156  1.1504 -2.2004  2.4751
18849THY    CA558540   4.549   5.864   3.109 -0.2070  0.2503 -0.2753
18849THY    CM158541   4.558   5.808   3.249 -0.3531  0.1982 -0.1433
18849THY    HM158542   4.657   5.766   3.266 -0.1443  0.9418  0.6246
18849THY    HM258543   4.479   5.734   3.269 -0.3061 -0.2656 -0.3234
18849THY    HM358544   4.546   5.891   3.319  0.0032 -0.4277  0.4450
18849THY    CA658545   4.584   5.776   3.008 -0.4639  0.3053 -0.0848
18849THY    HA658546   4.620   5.676   3.032 -1.6665  0.3553 -0.5176
18850THY      O58547   4.600   0.887   7.293  0.2210  0.0760 -0.3846
18850THY     HO58548   4.657   0.899   7.215 -0.4128 -0.7615 -2.3247
18850THY    CA158549   4.548   1.012   7.314  0.3729  0.7442 -0.3899
18850THY    CA258550   4.471   1.040   7.430  0.2650  0.0628  0.2345
18850THY    CP158551   4.477   0.943   7.543  0.4457 -0.2578 -0.3442
18850THY    HP158552   4.485   0.842   7.503  1.1825 -0.1345 -0.3400
18850THY    CP258553   4.347   0.938   7.629  0.7667 -0.7479 -0.1660
18850THY    HP258554   4.348   0.857   7.703 -0.3755 -1.1122 -0.5266
18850THY    HP358555   4.260   0.939   7.562 -0.0289  0.1744  2.9283
18850THY    HP458556   4.338   1.027   7.692  0.7448 -2.1362  0.8512
18850THY    CP358557   4.599   0.956   7.634  0.1036 -0.9473 -0.8080
18850THY    HP558558   4.692   0.958   7.576  0.0724 -0.9720  0.4509
18850THY    HP658559   4.608   0.866   7.697 -0.2543  3.4160  1.9009
18850THY    HP758560   4.585   1.046   7.694  0.1271 -1.9010 -0.1557
18850THY    CA358561   4.410   1.169   7.438  0.0215 -0.2986 -0.3063
18850THY    HA358562   4.341   1.192   7.520  1.4858  0.8406  0.1967
18850THY    CA458563   4.415   1.252   7.324  0.2241  0.3340  0.0405
18850THY    HA458564   4.352   1.341   7.324  0.8516 -2.4234  0.5729
18850THY    CA558565   4.491   1.224   7.211 -0.4556 -0.3960  0.4739
18850THY    CM158566   4.516   1.313   7.087 -0.6373 -0.1831  0.4287
18850THY    HM158567   4.619   1.347   7.071 -0.9814 -1.8716  0.7666
18850THY    HM258568   4.471   1.411   7.102 -0.7890  1.0621  0.1761
18850THY    HM358569   4.490   1.251   7.000  1.7026 -0.0403 -0.9122
18850THY    CA658570   4.558   1.104   7.207  0.6098 -0.1003 -0.5547
18850THY    HA658571   4.619   1.083   7.120  1.8323  0.7435 -0.6553
18851THY      O58572   4.094   3.040   5.192 -0.4742 -0.1717  0.1160
18851THY     HO58573   4.186   3.051   5.164 -0.9333 -1.3133  1.4009
18851THY    CA158574   4.091   3.146   5.271 -0.1823 -0.2663 -0.0992
18851THY    CA258575   3.978   3.195   5.328  0.1444  0.2826 -0.9123
18851THY    CP158576   3.838   3.125   5.306  0.0112 -0.3259 -0.2913
18851THY    HP158577   3.859   3.020   5.281  0.1757  1.5118 -0.7445
18851THY    CP258578   3.762   3.207   5.192 -0.8164 -0.2571  0.6834
18851THY    HP258579   3.815   3.234   5.100  0.7474  0.9764  2.0027
18851THY    HP358580   3.722   3.298   5.237 -0.3272  0.1278  0.7081
18851THY    HP458581   3.675   3.148   5.161 -1.2167  2.4139 -0.2678
18851THY    CP358582   3.764   3.128   5.439 -0.1882  0.0502 -0.7811
18851THY    HP558583   3.676   3.066   5.421 -0.6405 -0.5800  0.0157
18851THY    HP658584   3.716   3.225   5.460 -6.6565 -2.6015 -2.8376
18851THY    HP758585   3.822   3.096   5.526 -3.0501  2.7857  0.9196
18851THY    CA358586   3.985   3.312   5.398  0.1035  0.1644  0.0836
18851THY    HA358587   3.895   3.357   5.438 -0.4437 -0.4111 -0.4891
18851THY    CA458588   4.108   3.374   5.417  0.6994  0.2569  0.1055
18851THY    HA458589   4.099   3.467   5.472 -0.1217 -1.0474  0.8199
18851THY    CA558590   4.229   3.314   5.374 -0.2060 -0.8318  0.4527
18851THY    CM158591   4.360   3.377   5.402 -0.1508  0.0601  0.5845
18851THY    HM158592   4.388   3.396   5.506  0.6033  0.0116 -0.2040
18851THY    HM258593   4.360   3.471   5.344 -0.8951  1.2130  1.3238
18851THY    HM358594   4.441   3.314   5.363 -1.4093  0.4498 -1.3461
18851THY    CA658595   4.217   3.203   5.296 -1.0693  0.3525  0.2201
18851THY    HA658596   4.308   3.161   5.254  0.2012  1.4463  1.7930
18852THY      O58597   4.207   2.535   2.606  0.2920 -0.1448  0.1019
18852THY     HO58598   4.295   2.538   2.564  0.1696 -0.3660  1.2978
18852THY    CA158599   4.149   2.657   2.620 -0.4263  0.4455 -0.6338
18852THY    CA258600   4.026   2.668   2.685  0.0003 -0.3187 -0.6527
18852THY    CP158601   3.955   2.546   2.735  0.2985 -0.0419  1.2798
18852THY    HP158602   4.014   2.456   2.753 -2.8352 -1.7013 -1.3288
18852THY    CP258603   3.861   2.494   2.625  0.0437 -0.5535 -0.4329
18852THY    HP258604   3.828   2.393   2.652 -0.4780  0.9586  0.1135
18852THY    HP358605   3.913   2.500   2.528 -0.7457 -0.8846  2.1088
18852THY    HP458606   3.779   2.567   2.620  0.2736 -1.7940 -0.2363
18852THY    CP358607   3.866   2.569   2.871 -0.3581  0.1496  0.4036
18852THY    HP558608   3.933   2.609   2.948 -0.7092  0.7683 -0.1864
18852THY    HP658609   3.826   2.476   2.913 -0.1411  2.9144  1.4481
18852THY    HP758610   3.782   2.638   2.862  0.8036 -0.4348  1.7972
18852THY    CA358611   3.979   2.804   2.703  0.5096 -0.2657 -0.4613
18852THY    HA358612   3.887   2.824   2.757  1.2915  0.8303  0.2713
18852THY    CA458613   4.052   2.916   2.656  0.1691 -0.6274  0.2161
18852THY    HA458614   4.010   3.014   2.679  1.2747  0.0907  0.5522
18852THY    CA558615   4.177   2.901   2.593  0.0829  0.7872  0.4538
18852THY    CM158616   4.229   3.016   2.512 -0.8063  0.6305 -0.0388
18852THY    HM158617   4.240   2.999   2.404  0.0459  0.9217 -1.4464
18852THY    HM258618   4.327   3.047   2.550  0.6277 -1.1800 -2.0863
18852THY    HM358619   4.162   3.103   2.507  0.3080 -2.3123  0.7955
18852THY    CA658620   4.217   2.769   2.573 -0.6920 -0.4403 -0.6970
18852THY    HA658621   4.309   2.757   2.515 -0.5239 -0.5517  0.9026
18853THY      O58622   1.083   0.740   5.435  0.3630 -0.1461  0.6568
18853THY     HO58623   1.156   0.703   5.487 -0.7097  0.6354 -0.4397
18853THY    CA158624   1.029   0.650   5.355 -0.4064 -0.6077  0.4651
18853THY    CA258625   0.956   0.686   5.238  1.0669  0.4408  0.3042
18853THY    CP158626   0.931   0.832   5.196  0.2032 -0.3919 -0.2772
18853THY    HP158627   0.980   0.901   5.265 -1.0846 -1.2169  1.5323
18853THY    CP258628   0.781   0.861   5.190  0.0032  0.4722  0.7016
18853THY    HP258629   0.757   0.868   5.297  3.9332  1.4817  0.7026
18853THY    HP358630   0.718   0.792   5.132  1.7364 -2.6084  1.5066
18853THY    HP458631   0.757   0.958   5.146 -1.0874 -2.6409 -0.8553
18853THY    CP358632   0.995   0.861   5.061 -0.7401  0.4600 -0.0291
18853THY    HP558633   0.980   0.964   5.025  2.5133 -1.1697 -0.0029
18853THY    HP658634   0.960   0.788   4.988 -0.1454  0.2034 -0.0622
18853THY    HP758635   1.104   0.848   5.067 -0.9757 -0.3159 -2.8031
18853THY    CA358636   0.893   0.582   5.161  0.2615 -0.2200 -0.2384
18853THY    HA358637   0.846   0.606   5.066  2.8695 -1.1926  1.5793
18853THY    CA458638   0.891   0.450   5.206 -0.4167  0.4274 -0.2357
18853THY    HA458639   0.835   0.372   5.155 -3.0782  3.2570 -0.3851
18853THY    CA558640   0.964   0.414   5.317 -0.6513  0.3606 -0.5745
18853THY    CM158641   0.975   0.268   5.349 -0.2986 -0.3018  0.1301
18853THY    HM158642   0.994   0.198   5.267 -0.7786 -1.8607  1.7541
18853THY    HM258643   0.894   0.238   5.417 -1.4437 -0.7942  1.9112
18853THY    HM358644   1.068   0.257   5.405  0.3567 -1.4936 -0.5368
18853THY    CA658645   1.035   0.512   5.389 -0.3236  0.1078 -0.3454
18853THY    HA658646   1.081   0.484   5.483  2.4420 -0.8786  0.5945
18854THY      O58647   2.979   2.357   7.651  0.3224 -0.7196  0.5225
18854THY     HO58648   2.923   2.338   7.573 -0.8139  0.2031  0.0159
18854THY    CA158649   3.000   2.488   7.642  0.5351  0.0690  0.3085
18854THY    CA258650   3.097   2.544   7.719 -0.4062 -0.2931 -0.3946
18854THY    CP158651   3.187   2.463   7.814 -0.2570 -0.1322 -0.4809
18854THY    HP158652   3.147   2.361   7.819 -1.2210 -3.1701 -0.3442
18854THY    CP258653   3.201   2.518   7.957 -0.8192 -0.2052  0.0307
18854THY    HP258654   3.103   2.536   8.004 -0.9155  0.0192 -1.0193
18854THY    HP358655   3.259   2.611   7.962 -3.2992 -1.4801  1.7628
18854THY    HP458656   3.260   2.442   8.010  2.7687 -3.4206  0.2767
18854THY    CP358657   3.328   2.460   7.742 -0.3186  0.1568 -0.1562
18854THY    HP558658   3.373   2.559   7.754  0.4118  0.5482 -0.5270
18854THY    HP658659   3.309   2.450   7.635  2.0222 -0.6402  2.5934
18854THY    HP758660   3.383   2.373   7.778 -1.9969  0.8773 -0.9663
18854THY    CA358661   3.111   2.687   7.714  0.7620  0.0789  0.2141
18854THY    HA358662   3.195   2.731   7.767  0.9356 -0.5289  0.6251
18854THY    CA458663   3.019   2.764   7.628  0.2795  0.1565  0.2103
18854THY    HA458664   3.030   2.871   7.642  2.5189 -0.5492  0.1246
18854THY    CA558665   2.922   2.703   7.554  0.0625  0.0805 -0.2598
18854THY    CM158666   2.832   2.788   7.469 -0.2719 -0.2410  0.6762
18854THY    HM158667   2.777   2.850   7.541 -1.1221 -0.7793  0.5565
18854THY    HM258668   2.754   2.726   7.423  0.4420 -0.7820  0.1682
18854THY    HM358669   2.890   2.837   7.390 -0.1766 -0.3818  0.3330
18854THY    CA658670   2.909   2.566   7.566  0.1040 -0.0784  1.2693
18854THY    HA658671   2.833   2.519   7.504  1.1445 -0.8195  0.5082
18855THY      O58672   2.507   7.387   3.283  0.6778  0.3416  0.0286
18855THY     HO58673   2.547   7.326   3.347 -2.1778  0.6632 -1.6977
18855THY    CA158674   2.607   7.427   3.202  0.4197 -0.1973 -0.1061
18855THY    CA258675   2.581   7.528   3.104 -0.2265 -0.5947 -0.5157
18855THY    CP158676   2.440   7.591   3.098 -0.5649  0.6375  0.3966
18855THY    HP158677   2.366   7.539   3.160 -0.0892  1.5850  0.8228
18855THY    CP258678   2.385   7.606   2.954 -0.0116  0.1981 -0.3270
18855THY    HP258679   2.280   7.636   2.962 -0.2227  3.1517 -1.5281
18855THY    HP358680   2.384   7.524   2.881  0.0651  1.4312 -1.4458
18855THY    HP458681   2.451   7.686   2.916  1.1401  0.5933 -1.0680
18855THY    CP358682   2.442   7.738   3.163 -0.0598 -0.6567 -0.0056
18855THY    HP558683   2.462   7.726   3.270 -0.1134 -0.7158 -0.6560
18855THY    HP658684   2.350   7.796   3.149  0.0828  0.1609  0.4270
18855THY    HP758685   2.528   7.791   3.120  1.8290  1.2394 -1.3535
18855THY    CA358686   2.690   7.567   3.017  0.4855 -0.4432  0.0146
18855THY    HA358687   2.679   7.646   2.943 -0.3581 -0.2753  0.0551
18855THY    CA458688   2.811   7.503   3.021 -0.6293 -0.3242  0.6289
18855THY    HA458689   2.886   7.524   2.945 -0.8926 -0.9546 -0.6588
18855THY    CA558690   2.834   7.397   3.110 -0.0954  0.0423  0.7081
18855THY    CM158691   2.964   7.318   3.115  0.4471  1.2045 -0.0674
18855THY    HM158692   3.052   7.370   3.152  1.1269 -0.6850  0.2217
18855THY    HM258693   2.984   7.289   3.011  0.8565  1.3391 -0.2719
18855THY    HM358694   2.954   7.226   3.174 -0.6268  1.5536  0.2552
18855THY    CA658695   2.731   7.367   3.199 -0.0870  0.0856  0.2127
18855THY    HA658696   2.757   7.291   3.273 -0.1884  1.0296  1.0770
18856THY      O58697   5.826   5.489   2.151  0.1264  0.9252 -0.2133
18856THY     HO58698   5.732   5.485   2.127  0.6183 -1.5671  0.8493
18856THY    CA158699   5.844   5.483   2.281  0.5639  0.4898 -0.2011
18856THY    CA258700   5.968   5.495   2.347 -0.3504 -0.0658 -0.2312
18856THY    CP158701   6.102   5.543   2.272  0.2726 -0.5473  0.2894
18856THY    HP158702   6.096   5.551   2.163 -0.4311 -0.6034 -0.7663
18856THY    CP258703   6.213   5.450   2.304  0.0701 -0.5585 -0.4663
18856THY    HP258704   6.185   5.344   2.303 -2.2942  0.4049  0.1011
18856THY    HP358705   6.268   5.481   2.393 -0.5396 -0.8654  1.6753
18856THY    HP458706   6.287   5.461   2.223  0.6127 -0.0856 -0.5821
18856THY    CP358707   6.133   5.687   2.309 -0.2682  0.4867  0.0868
18856THY    HP558708   6.059   5.752   2.260  2.1960  0.4385  3.1131
18856THY    HP658709   6.228   5.721   2.265  0.0914 -0.0331 -1.5112
18856THY    HP758710   6.127   5.694   2.418 -0.2150  0.4950  0.0057
18856THY    CA358711   5.981   5.474   2.485  0.1414 -0.6629 -0.5708
18856THY    HA358712   6.073   5.497   2.538  0.1809  0.2006 -2.4665
18856THY    CA458713   5.868   5.430   2.553  0.1074 -0.2323  0.0135
18856THY    HA458714   5.877   5.403   2.657  1.5978 -0.1285  0.8103
18856THY    CA558715   5.749   5.394   2.488  0.7138 -0.4218  0.0290
18856THY    CM158716   5.632   5.342   2.559  0.4046  0.7434  0.1757
18856THY    HM158717   5.552   5.323   2.487 -0.2286  1.2799  0.7414
18856THY    HM258718   5.598   5.411   2.637 -2.0540 -1.1317  1.2423
18856THY    HM358719   5.657   5.244   2.603 -2.4312  0.8814 -0.5632
18856THY    CA658720   5.736   5.424   2.351 -0.5026  0.5592 -0.4201
18856THY    HA658721   5.640   5.421   2.300 -0.2959 -0.4510  3.8276
18857THY      O58722   5.947   4.238   7.142  0.0587  0.4565  0.7471
18857THY     HO58723   5.859   4.252   7.102  0.3047 -0.0292  0.9228
18857THY    CA158724   6.015   4.144   7.075 -0.0091  0.2317  0.0087
18857THY    CA258725   6.125   4.074   7.134 -0.7521 -0.0946 -0.6921
18857THY    CP158726   6.190   4.099   7.276 -0.6802  0.1283 -1.2261
18857THY    HP158727   6.156   4.194   7.319  0.8606  2.5867 -1.7010
18857THY    CP258728   6.346   4.110   7.262  0.3303  0.5120  0.6734
18857THY    HP258729   6.392   4.170   7.341 -0.8708  1.5982  0.1878
18857THY    HP358730   6.374   4.161   7.169 -0.6380 -0.4159 -0.4226
18857THY    HP458731   6.396   4.012   7.263  1.4334 -0.2332  1.2037
18857THY    CP358732   6.152   3.989   7.367 -0.0560 -1.3238  0.2926
18857THY    HP558733   6.189   3.893   7.328 -0.0625 -0.5403 -0.0356
18857THY    HP658734   6.043   3.984   7.376 -0.0588 -1.9408 -1.5068
18857THY    HP758735   6.195   4.011   7.465  0.5443 -1.6779  0.7254
18857THY    CA358736   6.197   3.983   7.047  0.4789 -0.1689 -0.3747
18857THY    HA358737   6.288   3.930   7.073  1.7658 -0.6299  1.5282
18857THY    CA458738   6.155   3.964   6.913  0.0978 -0.5402  0.1370
18857THY    HA458739   6.196   3.887   6.849 -0.9255  0.2491 -1.1176
18857THY    CA558740   6.047   4.032   6.869 -0.3737 -0.7953 -0.6398
18857THY    CM158741   5.990   4.026   6.724 -0.5588 -0.0651 -0.3944
18857THY    HM158742   6.003   4.115   6.662 -1.5495  1.9359  1.2066
18857THY    HM258743   5.885   3.996   6.739 -1.0467 -0.4297  1.0576
18857THY    HM358744   6.042   3.941   6.679  1.0056 -0.0007  0.5086
18857THY    CA658745   5.976   4.125   6.950 -0.0118  0.1220  0.2687
18857THY    HA658746   5.900   4.187   6.903  0.1828 -0.4074  0.1181
18858THY      O58747   0.873   5.866   4.817  0.3123  0.2751  0.5476
18858THY     HO58748   0.887   5.961   4.802  1.7291  0.4164  0.3938
18858THY    CA158749   0.990   5.801   4.818  0.3458  0.9309  0.6532
18858THY    CA258750   0.995   5.660   4.803  0.1716 -0.5015  0.3022
18858THY    CP158751   0.865   5.580   4.780  0.0185 -0.5424 -1.1667
18858THY    HP158752   0.782   5.628   4.832  0.4783 -2.6370  2.1776
18858THY    CP258753   0.876   5.436   4.826 -0.1788 -0.5300  0.8292
18858THY    HP258754   0.781   5.383   4.845 -0.0983  2.5320  1.5847
18858THY    HP358755   0.923   5.429   4.924  0.3442 -0.8547 -0.4087
18858THY    HP458756   0.941   5.366   4.772 -0.2626 -0.0216  0.3543
18858THY    CP358757   0.837   5.571   4.627  0.5342 -0.2963  1.1996
18858THY    HP558758   0.732   5.597   4.606  0.4560  1.0243  2.0442
18858THY    HP658759   0.839   5.468   4.591 -0.1497 -0.5946  1.2843
18858THY    HP758760   0.896   5.642   4.568  0.4088 -2.8273 -0.6655
18858THY    CA358761   1.122   5.599   4.800  0.0489 -0.3999  0.5741
18858THY    HA358762   1.140   5.492   4.801  0.4859 -0.7450  0.6430
18858THY    CA458763   1.234   5.679   4.817  0.6170  0.4805 -0.1255
18858THY    HA458764   1.330   5.633   4.839  0.4270  0.6738 -0.4275
18858THY    CA558765   1.231   5.815   4.818 -0.0639 -0.4145 -0.1778
18858THY    CM158766   1.358   5.891   4.841 -0.1545  0.1941  0.2113
18858THY    HM158767   1.339   5.969   4.915  1.5498  0.6861  0.2041
18858THY    HM258768   1.382   5.949   4.751  1.3749  0.5082  0.1135
18858THY    HM358769   1.450   5.837   4.865  0.6055  0.0969  1.4191
18858THY    CA658770   1.108   5.879   4.822  0.3877 -1.1582  0.2940
18858THY    HA658771   1.099   5.986   4.836 -2.3672  0.2052 -0.0372
18859THY      O58772   5.568   5.412   2.024 -0.6345  0.1150 -0.0487
18859THY     HO58773   5.602   5.333   1.979 -0.0638  0.3330  0.0685
18859THY    CA158774   5.443   5.438   1.979  0.2950 -0.0498  0.7921
18859THY    CA258775   5.334   5.478   2.065  0.0577 -0.4413  0.5260
18859THY    CP158776   5.361   5.481   2.217  0.4820 -0.4109 -0.2672
18859THY    HP158777   5.424   5.396   2.243  1.5841 -1.3349  0.2373
18859THY    CP258778   5.229   5.460   2.295 -0.6082 -0.4305  0.0867
18859THY    HP258779   5.243   5.473   2.403  1.2196 -0.3918 -1.6993
18859THY    HP358780   5.195   5.359   2.272 -0.3399  1.5031 -0.4830
18859THY    HP458781   5.150   5.533   2.272 -0.9882 -1.1047 -0.5259
18859THY    CP358782   5.429   5.615   2.269 -0.2088  0.0294  0.4917
18859THY    HP558783   5.485   5.590   2.359  0.7000  0.2865  3.1562
18859THY    HP658784   5.352   5.686   2.301 -0.7154  0.5738 -0.2746
18859THY    HP758785   5.496   5.648   2.189 -0.2912  0.0716  0.7635
18859THY    CA358786   5.202   5.488   2.013  0.6418  0.7737 -0.7320
18859THY    HA358787   5.112   5.515   2.067 -0.2595 -1.0383  0.1009
18859THY    CA458788   5.194   5.475   1.874 -1.2109 -0.0657  0.1770
18859THY    HA458789   5.099   5.487   1.823 -1.4063 -0.1745 -1.5643
18859THY    CA558790   5.301   5.435   1.792  0.3698  0.2630 -0.4422
18859THY    CM158791   5.299   5.433   1.643  0.4964 -0.8713  0.2911
18859THY    HM158792   5.348   5.349   1.591  1.1346 -0.9021  0.6799
18859THY    HM258793   5.332   5.534   1.616  0.6479  0.9524  0.7551
18859THY    HM358794   5.196   5.426   1.604 -1.0043  2.3063  2.4904
18859THY    CA658795   5.426   5.416   1.849 -0.2687 -1.3936  0.0475
18859THY    HA658796   5.515   5.382   1.796 -0.6417 -0.8981 -1.8313
18860THY      O58797   2.052   6.226   4.381 -0.2815  0.1316 -0.1461
18860THY     HO58798   2.144   6.195   4.383 -0.2527  0.0473 -0.0662
18860THY    CA158799   2.043   6.321   4.484  0.2262  0.5826  0.2354
18860THY    CA258800   1.925   6.378   4.505 -1.9244 -0.7050 -0.1007
18860THY    CP158801   1.821   6.360   4.398  0.6335 -0.1952  0.5480
18860THY    HP158802   1.867   6.341   4.300  0.3218 -0.4428  1.0403
18860THY    CP258803   1.722   6.472   4.371  0.7612 -0.2069 -0.1755
18860THY    HP258804   1.640   6.480   4.443 -0.2508 -0.9968 -2.5400
18860THY    HP358805   1.668   6.469   4.276 -1.5553  1.0482 -0.6386
18860THY    HP458806   1.764   6.572   4.381 -1.9734  0.6419  0.9859
18860THY    CP358807   1.745   6.226   4.430  0.2788 -0.2860 -0.4649
18860THY    HP558808   1.717   6.232   4.536  2.2257  0.3010 -0.8631
18860THY    HP658809   1.816   6.142   4.420  0.1459  2.7839 -1.0530
18860THY    HP758810   1.660   6.210   4.363 -0.1610  0.5311 -1.6410
18860THY    CA358811   1.895   6.430   4.641  0.5967  0.5187  0.0098
18860THY    HA358812   1.796   6.461   4.670 -0.3510  0.4181 -2.6946
18860THY    CA458813   2.001   6.439   4.733 -0.1753 -0.4415 -0.0335
18860THY    HA458814   1.986   6.481   4.832 -1.2592 -0.0477 -1.2666
18860THY    CA558815   2.129   6.398   4.694  0.9905 -0.2528  0.0913
18860THY    CM158816   2.236   6.386   4.800 -0.0356  0.5033  0.4309
18860THY    HM158817   2.337   6.382   4.758 -0.0953  0.3981 -0.0389
18860THY    HM258818   2.222   6.291   4.852  0.9317 -0.3668 -0.1979
18860THY    HM358819   2.231   6.473   4.866 -2.3146  1.2336 -0.1624
18860THY    CA658820   2.151   6.338   4.570  0.3456  0.5615  0.4384
18860THY    HA658821   2.252   6.304   4.548  0.7671 -0.7714  2.3691
18861THY      O58822   1.504   0.972   3.790 -0.8912  0.1890  0.1946
18861THY     HO58823   1.533   1.022   3.868 -0.6528  0.7888 -0.8604
18861THY    CA158824   1.375   0.998   3.779 -0.2563  0.6993  0.1220
18861THY    CA258825   1.286   0.933   3.692  0.2765 -0.2483  0.4506
18861THY    CP158826   1.333   0.805   3.611  0.1275 -0.4628  0.2984
18861THY    HP158827   1.442   0.811   3.613  0.2231 -0.7761 -1.0492
18861THY    CP258828   1.267   0.808   3.468 -0.4497  0.5558  0.1966
18861THY    HP258829   1.312   0.739   3.397 -2.7272 -1.4419  0.6166
18861THY    HP358830   1.278   0.903   3.415  0.6158 -1.6489 -1.0940
18861THY    HP458831   1.160   0.787   3.479 -0.4696  0.2049  0.1076
18861THY    CP358832   1.304   0.669   3.685 -0.1266  0.1698  0.0397
18861THY    HP558833   1.357   0.582   3.644 -1.7231 -1.5358 -0.1891
18861THY    HP658834   1.197   0.647   3.677 -0.0845 -0.0715 -0.0832
18861THY    HP758835   1.325   0.669   3.792 -0.5089  0.2588 -1.0495
18861THY    CA358836   1.156   0.976   3.681  0.2856  0.1183 -0.1713
18861THY    HA358837   1.078   0.924   3.626 -1.5925  2.8439 -0.4437
18861THY    CA458838   1.104   1.077   3.762 -0.0140  0.2340 -0.0693
18861THY    HA458839   1.003   1.113   3.750  0.5409 -1.3372  1.1269
18861THY    CA558840   1.195   1.145   3.846 -0.5015 -0.5740  1.0583
18861THY    CM158841   1.149   1.255   3.942 -0.3184  0.2499  0.0532
18861THY    HM158842   1.151   1.353   3.893  1.1454 -0.3781 -0.2643
18861THY    HM258843   1.216   1.261   4.029 -0.4262  0.4749 -1.4377
18861THY    HM358844   1.052   1.235   3.989 -0.7374 -0.7312 -0.3132
18861THY    CA658845   1.327   1.110   3.855 -0.1129  0.0854  0.1406
18861THY    HA658846   1.399   1.168   3.911  0.7260 -2.4973  1.7358
18862THY      O58847   0.657   1.120   2.554  0.7109 -0.0179  0.8257
18862THY     HO58848   0.671   1.085   2.465 -0.4638  0.1803 -0.2010
18862THY    CA158849   0.727   1.045   2.642 -0.6934  0.6451 -0.0393
18862THY    CA258850   0.676   1.018   2.770 -0.0565 -0.0204  0.3494
18862THY    CP158851   0.541   1.081   2.816 -0.4991  0.0690 -0.0853
18862THY    HP158852   0.515   1.164   2.750  2.1061 -0.4071  0.4597
18862THY    CP258853   0.550   1.140   2.963  0.7924 -0.0785  0.2730
18862THY    HP258854   0.623   1.221   2.970 -0.3594 -0.2778  1.3703
18862THY    HP358855   0.554   1.062   3.040  0.4688 -2.3184 -2.1028
18862THY    HP458856   0.455   1.187   2.992  1.3515  0.3519  1.1620
18862THY    CP358857   0.428   0.977   2.808 -0.1155  0.5126  0.0520
18862THY    HP558858   0.421   0.926   2.711 -1.0031  0.4953  0.1925
18862THY    HP658859   0.329   1.018   2.829 -0.6117  0.5616 -1.1381
18862THY    HP758860   0.454   0.907   2.889  1.1192  2.1308  2.2291
18862THY    CA358861   0.743   0.928   2.857  0.5494  0.4293  0.3583
18862THY    HA358862   0.709   0.909   2.958 -0.4236 -0.2588 -1.9384
18862THY    CA458863   0.866   0.878   2.811 -0.1011 -0.2796  0.3915
18862THY    HA458864   0.919   0.794   2.856  0.2491 -1.1140  0.1499
18862THY    CA558865   0.921   0.908   2.685 -0.0323  0.9171 -1.0173
18862THY    CM158866   1.057   0.859   2.645  0.0991  0.1236 -0.0239
18862THY    HM158867   1.071   0.829   2.540 -0.8578  0.4371 -1.7332
18862THY    HM258868   1.098   0.776   2.705 -1.4147  0.8873 -0.2508
18862THY    HM358869   1.126   0.940   2.671  1.7836  0.4775 -1.5122
18862THY    CA658870   0.854   0.996   2.600 -0.0384 -0.1226  0.0867
18862THY    HA658871   0.896   1.032   2.507  1.3774  0.6038  0.3814
18863THY      O58872   5.956   4.549   3.885 -0.1662 -0.5497  1.1103
18863THY     HO58873   5.944   4.632   3.935 -1.6267  0.5523  0.2763
18863THY    CA158874   6.092   4.545   3.870  0.6568  0.8685  0.3589
18863THY    CA258875   6.150   4.459   3.769  0.0103  1.4166 -0.5175
18863THY    CP158876   6.056   4.376   3.676 -0.4809  0.4639  0.0310
18863THY    HP158877   5.974   4.439   3.641 -1.3343  0.3465 -1.1050
18863THY    CP258878   6.009   4.252   3.752 -1.1196  0.1042 -0.0929
18863THY    HP258879   5.936   4.192   3.696  0.5765 -1.5078 -0.7502
18863THY    HP358880   5.973   4.288   3.849 -0.4906 -0.2603  1.6246
18863THY    HP458881   6.085   4.178   3.779 -1.3411  1.7367  0.2476
18863THY    CP358882   6.123   4.334   3.546  0.3104 -0.1764 -0.1520
18863THY    HP558883   6.191   4.249   3.558 -2.2607 -0.2121 -2.3761
18863THY    HP658884   6.177   4.412   3.492  1.3276  1.5088  0.3455
18863THY    HP758885   6.044   4.289   3.484  0.4886  1.5577 -3.1366
18863THY    CA358886   6.288   4.452   3.759  0.2911 -0.6652  0.0802
18863THY    HA358887   6.332   4.397   3.676  3.6293  1.5031 -0.7870
18863THY    CA458888   6.369   4.521   3.850  1.1521  0.0026 -0.3375
18863THY    HA458889   6.477   4.507   3.844  0.9091  0.8294 -3.1924
18863THY    CA558890   6.313   4.609   3.952  0.0254 -0.1598  0.8624
18863THY    CM158891   6.406   4.687   4.047  0.5979  0.1138  0.4266
18863THY    HM158892   6.395   4.650   4.149  2.5544  1.0579  2.2127
18863THY    HM258893   6.369   4.790   4.053 -2.4742 -1.2573 -0.4985
18863THY    HM358894   6.515   4.674   4.042  0.8890  2.7268  1.2373
18863THY    CA658895   6.171   4.617   3.959  0.0348  0.2950 -0.6156
18863THY    HA658896   6.132   4.690   4.029  0.0993 -0.5084  0.2085
18864THY      O58897   2.221   8.336   6.428  0.3179  0.0689 -0.0477
18864THY     HO58898   2.309   8.318   6.465  0.0690  0.2253 -0.9781
18864THY    CA158899   2.191   8.242   6.334  0.3208  0.0077 -0.0779
18864THY    CA258900   2.070   8.229   6.266  0.4628 -0.0233 -0.1809
18864THY    CP158901   1.962   8.337   6.271 -0.0012 -0.4148 -0.2796
18864THY    HP158902   1.984   8.418   6.340 -1.2720  0.0294 -0.2913
18864THY    CP258903   1.830   8.266   6.317 -0.9757  0.9497 -0.3008
18864THY    HP258904   1.754   8.338   6.352  0.4864  1.4479  1.0518
18864THY    HP358905   1.851   8.193   6.396  4.9217  0.1878  0.0709
18864THY    HP458906   1.788   8.223   6.225  0.0085  0.1471  0.4037
18864THY    CP358907   1.944   8.414   6.139 -0.3807 -0.3001  0.5801
18864THY    HP558908   1.858   8.481   6.150 -1.4352  1.2871 -0.9493
18864THY    HP658909   1.922   8.342   6.059 -2.8495  0.9410 -0.1620
18864THY    HP758910   2.040   8.461   6.116 -0.0375 -0.4423 -0.1668
18864THY    CA358911   2.059   8.126   6.166 -0.0962  0.2379  0.7350
18864THY    HA358912   1.977   8.125   6.095 -0.4160  0.5547 -1.8119
18864THY    CA458913   2.152   8.030   6.161 -0.1440 -0.7233  0.2956
18864THY    HA458914   2.165   7.963   6.076  0.8934  0.1636 -0.6627
18864THY    CA558915   2.269   8.032   6.241 -0.3179 -0.3740  1.2409
18864THY    CM158916   2.379   7.931   6.243 -0.4688  0.2961  0.2349
18864THY    HM158917   2.476   7.978   6.264 -0.1029  0.3015 -0.5203
18864THY    HM258918   2.387   7.895   6.140  1.9588  0.2338  0.7862
18864THY    HM358919   2.367   7.851   6.316  0.8727 -1.8741 -2.1157
18864THY    CA658920   2.290   8.149   6.315 -0.3872  0.5810  0.2227
18864THY    HA658921   2.382   8.162   6.370 -0.0673  0.1638 -0.2169
18865THY      O58922   3.162   7.334   6.895 -0.2991 -0.3964  0.1555
18865THY     HO58923   3.066   7.342   6.911 -0.5326 -0.3483 -2.0572
18865THY    CA158924   3.180   7.367   6.764  0.6400 -0.0420  0.4454
18865THY    CA258925   3.307   7.410   6.715 -0.2105  0.3179  0.0121
18865THY    CP158926   3.424   7.407   6.812  0.2631 -0.5798  0.5910
18865THY    HP158927   3.405   7.324   6.881  0.7481 -2.6147 -1.2952
18865THY    CP258928   3.419   7.538   6.892 -0.2691  0.2602 -0.3121
18865THY    HP258929   3.489   7.529   6.976  0.7215 -0.6325 -1.0538
18865THY    HP358930   3.318   7.559   6.928 -0.9496 -1.3708 -0.6637
18865THY    HP458931   3.450   7.613   6.818  1.0214 -0.9759 -1.9997
18865THY    CP358932   3.565   7.393   6.749  0.0063  0.2309 -0.3935
18865THY    HP558933   3.581   7.468   6.670  1.3140  0.6648 -0.2011
18865THY    HP658934   3.577   7.296   6.701 -0.0247  0.1077 -0.3377
18865THY    HP758935   3.637   7.406   6.830  0.2408 -0.2563  1.8234
18865THY    CA358936   3.311   7.458   6.577 -0.6820 -0.6528 -0.1232
18865THY    HA358937   3.399   7.489   6.522 -0.5228 -0.3715 -0.0690
18865THY    CA458938   3.195   7.453   6.503 -0.1544  0.7825  1.0843
18865THY    HA458939   3.212   7.471   6.398  1.1774  0.8406  0.2675
18865THY    CA558940   3.072   7.401   6.552 -0.7558  0.1106  0.7721
18865THY    CM158941   2.952   7.387   6.469  0.0108 -0.2274 -0.1875
18865THY    HM158942   2.892   7.303   6.506 -1.2961 -1.3309  0.2283
18865THY    HM258943   2.980   7.375   6.364  2.4056  0.2433  0.6508
18865THY    HM358944   2.888   7.476   6.463 -0.6591 -0.2850 -0.6697
18865THY    CA658945   3.067   7.363   6.687  0.5414 -0.0386  0.0930
18865THY    HA658946   2.977   7.321   6.731  0.1062 -0.2718  0.7578
18866THY      O58947   9.340   8.407   4.796 -0.2944 -0.6337 -0.0035
18866THY     HO58948   9.429   8.393   4.832 -0.1985 -0.3280  1.2987
18866THY    CA158949   9.238   8.358   4.875 -0.2460  0.7144  0.3934
18866THY    CA258950   9.112   8.325   4.817 -0.6255 -0.2506 -0.0846
18866THY    CP158951   9.085   8.357   4.671 -0.5894  0.2882 -0.2780
18866THY    HP158952   9.104   8.464   4.662 -1.2980  0.7976 -0.1019
18866THY    CP258953   8.936   8.345   4.641 -0.1430  0.5598 -0.0152
18866THY    HP258954   8.878   8.414   4.705  0.9094  1.2022  0.3059
18866THY    HP358955   8.897   8.243   4.648  0.8734  1.5885 -0.3614
18866THY    HP458956   8.920   8.367   4.535 -1.1767  0.7540  0.2445
18866THY    CP358957   9.175   8.276   4.574  0.0230  0.5556  0.5242
18866THY    HP558958   9.128   8.289   4.475  0.5408  0.2228 -0.0668
18866THY    HP658959   9.183   8.171   4.607  1.5503  1.1344  0.7993
18866THY    HP758960   9.274   8.320   4.586 -0.6716 -0.2597  2.4085
18866THY    CA358961   9.011   8.279   4.911 -1.2576  0.4517  0.6652
18866THY    HA358962   8.907   8.260   4.884 -1.4692  1.8181 -0.2497
18866THY    CA458963   9.048   8.256   5.042  0.2456 -0.6281 -0.2800
18866THY    HA458964   8.976   8.226   5.117  2.1316  1.3244 -0.1595
18866THY    CA558965   9.181   8.285   5.088  0.7335 -0.3611  0.5253
18866THY    CM158966   9.221   8.253   5.230 -0.2459  0.0654  0.7876
18866THY    HM158967   9.258   8.150   5.235 -1.4119  1.1538  0.3974
18866THY    HM258968   9.137   8.248   5.300  1.8113  2.6082 -0.6616
18866THY    HM358969   9.297   8.323   5.267 -1.3873  1.9942  1.0804
18866THY    CA658970   9.274   8.321   5.005 -0.1608  0.2705  0.5798
18866THY    HA658971   9.371   8.326   5.054 -0.8579  1.9224 -1.0287
18867THY      O58972   5.656   3.107   6.322 -0.0149  0.1386 -0.3138
18867THY     HO58973   5.731   3.165   6.347 -1.0722 -3.0801  2.8392
18867THY    CA158974   5.715   3.021   6.232  0.1104 -0.0246  0.8620
18867THY    CA258975   5.633   2.946   6.147 -0.3577  0.5481  0.3321
18867THY    CP158976   5.477   2.951   6.152  0.1594 -0.2723  0.3555
18867THY    HP158977   5.442   3.028   6.222  0.6646  0.2913  0.0776
18867THY    CP258978   5.428   2.811   6.190 -0.4333 -0.1902  0.4120
18867THY    HP258979   5.319   2.810   6.200 -0.7099 -2.5399 -0.2247
18867THY    HP358980   5.478   2.775   6.280 -0.3030 -0.6617 -0.6201
18867THY    HP458981   5.457   2.741   6.111 -0.3618  0.0098  0.2178
18867THY    CP358982   5.418   3.004   6.025 -0.1606 -0.9447 -0.2778
18867THY    HP558983   5.316   3.037   6.049  0.9751  1.6861  1.6946
18867THY    HP658984   5.424   2.926   5.949 -0.0828  1.0622 -2.3367
18867THY    HP758985   5.482   3.087   5.995 -0.1176  1.5626  0.6844
18867THY    CA358986   5.700   2.866   6.051 -0.4422 -0.0593  0.4888
18867THY    HA358987   5.651   2.805   5.975 -0.5152 -0.8478  1.4859
18867THY    CA458988   5.841   2.861   6.047 -0.2292 -0.1579 -0.5696
18867THY    HA458989   5.886   2.794   5.975  0.2591 -0.3079 -0.0833
18867THY    CA558990   5.921   2.936   6.132 -0.1607  0.4969  0.3501
18867THY    CM158991   6.076   2.927   6.126 -0.4356  0.3662  0.2221
18867THY    HM158992   6.125   2.914   6.029  2.4976  1.9838 -1.8938
18867THY    HM258993   6.095   2.832   6.177  1.3809  0.5937  0.6762
18867THY    HM358994   6.120   3.011   6.181 -0.4183  1.7075 -0.6257
18867THY    CA658995   5.855   3.013   6.230 -0.4254 -0.1635 -0.6614
18867THY    HA658996   5.920   3.070   6.297 -3.1962  0.7927  1.6400
18868THY      O58997   4.589   5.818   6.882  0.2961 -0.5249 -0.0076
18868THY     HO58998   4.517   5.822   6.948  1.3218  0.6612 -0.7264
18868THY    CA158999   4.605   5.692   6.827  0.3831 -0.3913  1.3763
18868THY    CA259000   4.660   5.578   6.901  0.0249  0.2582 -0.2343
18868THY    CP159001   4.706   5.589   7.047  0.6360 -0.4944  0.1008
18868THY    HP159002   4.673   5.677   7.103 -1.7900  0.4323 -1.3044
18868THY    CP259003   4.856   5.597   7.054  0.5641  0.1297 -0.3473
18868THY    HP259004   4.885   5.589   7.160 -1.3069  0.7025 -0.1017
18868THY    HP359005   4.904   5.682   7.005  1.5924  1.2089 -0.2705
18868THY    HP459006   4.901   5.506   7.012  1.4212  0.4324 -0.0765
18868THY    CP359007   4.645   5.477   7.142 -0.0432 -0.1700  0.2038
18868THY    HP559008   4.689   5.379   7.121 -1.3169 -3.1052  0.1760
18868THY    HP659009   4.540   5.460   7.117  0.4788 -1.7574 -0.9329
18868THY    HP759010   4.655   5.505   7.248 -0.6466 -0.4864  1.7175
18868THY    CA359011   4.671   5.458   6.834 -0.6356 -0.2028  0.3387
18868THY    HA359012   4.717   5.370   6.880 -2.4846  0.7029 -0.2132
18868THY    CA459013   4.605   5.439   6.708 -0.3525 -0.5222  0.2027
18868THY    HA459014   4.597   5.343   6.657  0.9033  0.5933 -0.5286
18868THY    CA559015   4.542   5.545   6.649  0.0805  0.3648 -0.5799
18868THY    CM159016   4.474   5.532   6.514 -0.3696  0.0420 -1.3517
18868THY    HM159017   4.466   5.428   6.478  0.3075 -1.6725 -0.8401
18868THY    HM259018   4.538   5.589   6.445  0.3514  0.6476 -1.4072
18868THY    HM359019   4.372   5.572   6.512 -0.0488 -1.8906 -0.5306
18868THY    CA659020   4.554   5.673   6.701 -0.1015 -0.6774 -0.1988
18868THY    HA659021   4.498   5.756   6.660  0.2730  0.2771  0.5410
18869THY      O59022   9.000   3.474   4.221  0.4022 -0.5431 -0.3972
18869THY     HO59023   8.970   3.490   4.129  0.7219 -0.4343  0.9535
18869THY    CA159024   9.085   3.573   4.242  0.6216 -0.2910 -0.4224
18869THY    CA259025   9.187   3.576   4.344 -0.5364  0.4248  0.6851
18869THY    CP159026   9.217   3.444   4.429  0.3894  0.5448 -0.2816
18869THY    HP159027   9.129   3.379   4.421 -0.6986  2.9121  0.7876
18869THY    CP259028   9.238   3.478   4.569  0.0470  0.0361 -0.6140
18869THY    HP259029   9.157   3.542   4.604  1.2447  0.2310  0.8534
18869THY    HP359030   9.323   3.545   4.590 -1.3783  2.0734  0.6721
18869THY    HP459031   9.244   3.384   4.625  0.3874 -0.3211 -0.8093
18869THY    CP359032   9.338   3.370   4.375 -0.5501  0.5670  0.3197
18869THY    HP559033   9.340   3.271   4.422  1.0568 -1.4345 -0.6812
18869THY    HP659034   9.439   3.410   4.386  0.2803 -0.7888 -1.2770
18869THY    HP759035   9.320   3.336   4.272  1.4501  0.2034  0.2730
18869THY    CA359036   9.280   3.685   4.342 -0.7173 -0.6069 -0.1990
18869THY    HA359037   9.363   3.689   4.412 -2.2357  1.5787 -3.2416
18869THY    CA459038   9.266   3.790   4.247  0.1786 -0.0439  0.1379
18869THY    HA459039   9.338   3.871   4.243  0.6406 -1.3921 -0.3130
18869THY    CA559040   9.165   3.783   4.155  0.4518  0.0063  0.5366
18869THY    CM159041   9.135   3.895   4.062 -0.3148 -0.3715  0.1215
18869THY    HM159042   9.037   3.941   4.081  0.4752 -0.5102  1.9634
18869THY    HM259043   9.139   3.861   3.958 -0.1064 -0.0147 -0.9733
18869THY    HM359044   9.218   3.966   4.075 -0.3884 -2.9309  0.7778
18869THY    CA659045   9.083   3.676   4.148  0.1422 -0.3083 -0.2184
18869THY    HA659046   9.019   3.668   4.061  1.6803 -1.5067  0.0848
18870THY      O59047   3.783   4.407   2.559 -0.3771 -0.4691  0.6836
18870THY     HO59048   3.836   4.327   2.568 -0.1523  0.0500  0.8822
18870THY    CA159049   3.787   4.480   2.672 -0.1044  0.3066 -1.3783
18870THY    CA259050   3.693   4.577   2.704 -0.0062  0.4181 -0.3379
18870THY    CP159051   3.577   4.608   2.619  0.7680  0.4853  0.0264
18870THY    HP159052   3.585   4.543   2.531  1.0370 -0.8310  1.7893
18870THY    CP259053   3.575   4.759   2.559 -0.4744 -0.1346  0.1252
18870THY    HP259054   3.574   4.828   2.643 -0.2037  0.2496 -0.3344
18870THY    HP359055   3.481   4.783   2.507  0.3962 -2.2590 -0.8408
18870THY    HP459056   3.657   4.780   2.489  0.3448  0.3009 -1.4539
18870THY    CP359057   3.443   4.580   2.684  0.3127 -0.4810  0.5396
18870THY    HP559058   3.426   4.473   2.701 -0.9062 -3.0422  0.2665
18870THY    HP659059   3.363   4.597   2.612  1.5670 -1.9705  0.3507
18870THY    HP759060   3.427   4.633   2.779  0.3350 -0.1910  0.0419
18870THY    CA359061   3.718   4.661   2.809 -0.6273  0.0368 -0.0187
18870THY    HA359062   3.649   4.743   2.830 -0.8084 -0.0670 -0.1454
18870THY    CA459063   3.843   4.647   2.884  0.6127 -0.0472  0.0069
18870THY    HA459064   3.869   4.703   2.974  3.2927 -0.8357  0.1932
18870THY    CA559065   3.928   4.544   2.855 -0.4922 -0.0620  0.4679
18870THY    CM159066   4.041   4.512   2.938  0.3374  0.6301 -0.5679
18870THY    HM159067   4.122   4.491   2.868  0.3798  0.8697 -1.2328
18870THY    HM259068   4.018   4.442   3.019 -0.2451  1.0546  0.1032
18870THY    HM359069   4.068   4.597   3.002  1.7669  0.4647 -0.8733
18870THY    CA659070   3.897   4.465   2.750  1.0305  0.0091  0.7406
18870THY    HA659071   3.957   4.376   2.733  1.6268  2.3805  0.6193
18871THY      O59072   0.590   2.946   5.593 -0.0625 -0.2149  0.2237
18871THY     HO59073   0.581   3.016   5.659  1.0755  2.4106 -1.9380
18871THY    CA159074   0.679   2.857   5.641 -0.2863  0.2422  0.4665
18871THY    CA259075   0.727   2.744   5.563  0.6832  0.3070 -0.0066
18871THY    CP159076   0.679   2.734   5.420 -0.4659 -0.0589  0.3066
18871THY    HP159077   0.629   2.827   5.391  1.0411 -1.9892  0.5877
18871THY    CP259078   0.585   2.614   5.398  0.4366 -0.5091 -0.0798
18871THY    HP259079   0.518   2.599   5.483  1.8073  0.4236 -1.3123
18871THY    HP359080   0.640   2.518   5.396  0.6436 -0.6837  0.0410
18871THY    HP459081   0.519   2.643   5.316 -0.2303 -0.0006 -0.1527
18871THY    CP359082   0.801   2.722   5.322  0.1020  0.0575  0.3203
18871THY    HP559083   0.766   2.708   5.219  0.2479  0.1282 -0.6261
18871THY    HP659084   0.866   2.637   5.345  1.3605 -2.4590  0.5242
18871THY    HP759085   0.865   2.811   5.328  2.5957  0.2719 -1.4117
18871THY    CA359086   0.805   2.649   5.631  0.1841 -0.4241  0.0329
18871THY    HA359087   0.842   2.568   5.570  0.7738 -0.1041  0.0575
18871THY    CA459088   0.837   2.668   5.764  0.9456 -0.3788 -0.1814
18871THY    HA459089   0.904   2.599   5.816  0.6762 -0.5187 -0.5506
18871THY    CA559090   0.798   2.787   5.837  0.3935  0.0956 -0.9761
18871THY    CM159091   0.835   2.815   5.978  1.3586  0.5818 -0.1104
18871THY    HM159092   0.807   2.918   6.001  0.2898 -0.3122 -0.1751
18871THY    HM259093   0.939   2.790   6.003  0.6383  0.7421 -3.5020
18871THY    HM359094   0.769   2.769   6.053 -1.7154 -0.4198  2.3019
18871THY    CA659095   0.719   2.877   5.772  0.5665 -0.7128  0.3305
18871THY    HA659096   0.676   2.965   5.819  1.2475 -0.0772  0.3275
18872THY      O59097   7.124   7.462   4.535 -0.2221  0.4196  0.4354
18872THY     HO59098   7.177   7.486   4.612  0.6450 -0.0952  0.2289
18872THY    CA159099   7.004   7.473   4.588 -0.6806 -0.2022  0.4378
18872THY    CA259100   6.894   7.473   4.510 -0.1090 -0.3575 -0.0587
18872THY    CP159101   6.917   7.501   4.361  0.3777 -0.3086  0.4216
18872THY    HP159102   7.015   7.473   4.322 -0.1165 -2.2963  1.3126
18872THY    CP259103   6.905   7.645   4.334  0.2810 -0.3204  0.6065
18872THY    HP259104   6.951   7.668   4.237  1.8412  0.5221  1.1456
18872THY    HP359105   6.952   7.720   4.399 -0.4028  2.1729 -1.0307
18872THY    HP459106   6.803   7.684   4.324 -0.5910  0.9991 -1.2178
18872THY    CP359107   6.811   7.420   4.268 -0.2462 -0.0794  0.0957
18872THY    HP559108   6.708   7.440   4.300 -1.1613 -1.3092 -2.2987
18872THY    HP659109   6.818   7.311   4.270 -2.9801 -0.1177 -0.1518
18872THY    HP759110   6.817   7.450   4.163 -0.3680  0.6848  3.0899
18872THY    CA359111   6.767   7.464   4.565  0.4386  0.5031  0.2034
18872THY    HA359112   6.677   7.464   4.505  0.2528  0.7781 -0.0234
18872THY    CA459113   6.758   7.454   4.708  0.0941  0.3898 -0.3236
18872THY    HA459114   6.659   7.446   4.752 -0.7380 -1.2782  0.3505
18872THY    CA559115   6.871   7.473   4.785 -0.0744 -0.2588  0.0772
18872THY    CM159116   6.865   7.460   4.938 -0.2550  0.5745 -0.6243
18872THY    HM159117   6.803   7.380   4.981 -1.3963  0.3318  0.1099
18872THY    HM259118   6.841   7.555   4.985 -0.0366 -1.2095  0.3549
18872THY    HM359119   6.966   7.440   4.977  0.6361 -0.0459  2.2698
18872THY    CA659120   6.996   7.483   4.728  0.1973  0.4065 -0.2308
18872THY    HA659121   7.080   7.467   4.794  1.5774 -0.8669  1.2763
18873THY      O59122   7.892   3.748   5.337  0.0872  0.3306  0.4764
18873THY     HO59123   7.982   3.733   5.370  1.3688 -2.8736  0.3498
18873THY    CA159124   7.815   3.669   5.411 -0.0706  0.9346  0.0161
18873THY    CA259125   7.679   3.655   5.371 -0.1024  0.4613  0.0365
18873THY    CP159126   7.624   3.732   5.251 -0.3269  0.4600  0.1817
18873THY    HP159127   7.709   3.764   5.190 -0.0016  0.1923 -1.1381
18873THY    CP259128   7.527   3.848   5.289  0.1327  0.0918  0.5847
18873THY    HP259129   7.565   3.903   5.376 -0.7671  1.3237 -0.6697
18873THY    HP359130   7.432   3.809   5.328  1.7944  3.4250 -0.5656
18873THY    HP459131   7.502   3.915   5.206 -0.8361 -0.2423 -0.1670
18873THY    CP359132   7.557   3.637   5.145  0.1981  0.4774 -0.6680
18873THY    HP559133   7.635   3.573   5.103 -0.8109 -1.7637 -0.5158
18873THY    HP659134   7.516   3.697   5.064 -0.3884  3.2867  3.1262
18873THY    HP759135   7.480   3.571   5.186 -0.4585 -0.5403 -0.5433
18873THY    CA359136   7.596   3.579   5.453  0.1499 -0.0303  0.1550
18873THY    HA359137   7.489   3.570   5.436  0.1432  0.6252 -1.2793
18873THY    CA459138   7.649   3.532   5.571  0.1536 -0.1899  0.4697
18873THY    HA459139   7.589   3.465   5.632  1.1357  0.6866  0.3475
18873THY    CA559140   7.784   3.550   5.608 -0.3833 -0.2340 -0.2623
18873THY    CM159141   7.835   3.469   5.731  0.5468 -0.3207 -0.1579
18873THY    HM159142   7.864   3.366   5.708 -3.9214  3.4733 -2.6503
18873THY    HM259143   7.765   3.472   5.815 -0.4396 -1.0110 -2.1997
18873THY    HM359144   7.921   3.529   5.765 -0.2655 -0.5661  1.1908
18873THY    CA659145   7.867   3.621   5.532 -0.1035 -0.0734 -0.0071
18873THY    HA659146   7.973   3.633   5.555 -0.1173 -0.8812  2.2262
18874THY      O59147   9.153   7.789   7.392 -0.4367 -0.1988 -0.0105
18874THY     HO59148   9.181   7.728   7.462  0.2518 -1.1737 -0.8503
18874THY    CA159149   9.105   7.900   7.448  0.0369 -0.3301 -0.3685
18874THY    CA259150   8.997   7.962   7.385 -0.5276 -0.2774 -0.1133
18874THY    CP159151   8.927   7.882   7.268 -0.4048 -0.2429 -0.4476
18874THY    HP159152   8.967   7.780   7.260  0.1917  0.8572 -0.3162
18874THY    CP259153   8.948   7.956   7.137 -0.4766 -0.0179 -0.0049
18874THY    HP259154   9.056   7.970   7.119 -0.5728  0.9529  2.3430
18874THY    HP359155   8.898   8.053   7.140 -0.6274 -2.2149  0.0432
18874THY    HP459156   8.902   7.902   7.053 -0.9906 -1.1435  2.0670
18874THY    CP359157   8.778   7.856   7.286  0.0591 -0.2893  0.2064
18874THY    HP559158   8.738   7.832   7.187  0.1346 -0.5688  1.1789
18874THY    HP659159   8.715   7.940   7.317 -1.9454  0.0261 -1.3279
18874THY    HP759160   8.766   7.771   7.354 -1.1750 -1.4665 -0.6035
18874THY    CA359161   8.952   8.085   7.434  0.0974  0.0422 -0.9884
18874THY    HA359162   8.878   8.134   7.371 -0.9376  1.6716 -0.3860
18874THY    CA459163   9.005   8.146   7.550 -0.7870  0.5415  0.9265
18874THY    HA459164   8.960   8.239   7.582 -2.9972  1.6041 -0.4297
18874THY    CA559165   9.099   8.071   7.621 -0.0358  0.7463 -0.0671
18874THY    CM159166   9.160   8.123   7.749  0.0096  0.1017  0.2883
18874THY    HM159167   9.097   8.203   7.789 -1.5350  0.1461 -0.9139
18874THY    HM259168   9.256   8.174   7.731 -0.6798  0.8420  1.9018
18874THY    HM359169   9.151   8.047   7.827  0.0914 -0.1266  0.0411
18874THY    CA659170   9.157   7.955   7.565  0.6463 -0.2799  0.1528
18874THY    HA659171   9.246   7.911   7.609 -0.1317  2.7750  1.3816
18875THY      O59172   7.572   1.261   2.539  0.0232  0.1818 -0.0402
18875THY     HO59173   7.539   1.349   2.515  0.0902 -0.5554 -0.2134
18875THY    CA159174   7.702   1.256   2.505 -0.2601 -0.7440  0.4398
18875THY    CA259175   7.767   1.134   2.492 -0.4439 -0.3250  0.1754
18875THY    CP159176   7.696   0.999   2.508 -0.3123  0.2017 -0.6808
18875THY    HP159177   7.589   1.017   2.517 -0.1308  0.7531  0.1873
18875THY    CP259178   7.741   0.913   2.635 -0.0380 -0.5367 -0.1637
18875THY    HP259179   7.713   0.809   2.618  0.6679 -2.6261 -0.0738
18875THY    HP359180   7.706   0.961   2.727  0.7374 -0.4485  0.2464
18875THY    HP459181   7.849   0.898   2.638 -0.3288  0.5217 -2.4187
18875THY    CP359182   7.714   0.912   2.379  0.4750  0.4292  0.8829
18875THY    HP559183   7.794   0.839   2.392 -1.5524  1.4519 -1.3312
18875THY    HP659184   7.745   0.983   2.302  0.6065  1.8214  2.3959
18875THY    HP759185   7.616   0.867   2.358 -0.6399  2.3108  2.2848
18875THY    CA359186   7.909   1.137   2.462  0.1021  0.0877  0.0452
18875THY    HA359187   7.965   1.045   2.443  2.7847  1.5895  1.2571
18875THY    CA459188   7.977   1.254   2.457  0.9959  0.2642 -0.7487
18875THY    HA459189   8.080   1.257   2.421  0.4106 -1.6901 -1.8453
18875THY    CA559190   7.905   1.372   2.476  0.0662  1.2487 -0.3395
18875THY    CM159191   7.980   1.506   2.459  0.6929  0.1000 -0.0533
18875THY    HM159192   7.929   1.593   2.503  0.8781  0.5269 -0.1560
18875THY    HM259193   7.992   1.523   2.351 -3.0065 -0.1595  1.9624
18875THY    HM359194   8.084   1.508   2.496  0.4966  0.6465  0.1587
18875THY    CA659195   7.768   1.370   2.489  0.1501 -0.1319 -0.1168
18875THY    HA659196   7.729   1.471   2.494  1.7834 -2.8427  0.7385
18876THY      O59197   2.782   7.385   6.137  0.3387 -0.0658  0.5387
18876THY     HO59198   2.824   7.299   6.121 -1.2571  1.5620 -0.6101
18876THY    CA159199   2.715   7.441   6.036  0.4343  0.7950 -0.0820
18876THY    CA259200   2.618   7.543   6.049 -0.3869 -0.4565 -0.1711
18876THY    CP159201   2.594   7.588   6.194  0.4934  0.3025  0.2259
18876THY    HP159202   2.639   7.514   6.262  0.4389  0.7630  0.6159
18876THY    CP259203   2.446   7.603   6.232 -0.6544  0.5836 -0.1321
18876THY    HP259204   2.433   7.631   6.337  2.4631  1.1582 -0.4905
18876THY    HP359205   2.393   7.508   6.218 -1.0254 -0.8318  0.2599
18876THY    HP459206   2.394   7.668   6.161  0.3005  1.9677  2.2458
18876THY    CP359207   2.664   7.725   6.226 -0.0326  0.1086 -0.2249
18876THY    HP559208   2.628   7.787   6.143  0.1610 -0.7499 -1.2383
18876THY    HP659209   2.773   7.727   6.216  0.1546  1.7583  2.2006
18876THY    HP759210   2.637   7.763   6.326 -1.0377 -0.0432 -0.4977
18876THY    CA359211   2.546   7.597   5.941  0.3015 -0.5616 -0.6052
18876THY    HA359212   2.477   7.677   5.966  2.1401  2.2797  0.2453
18876THY    CA459213   2.571   7.542   5.814 -0.2069  0.3564 -0.6144
18876THY    HA459214   2.518   7.587   5.730 -2.6447  2.1940  0.1522
18876THY    CA559215   2.667   7.442   5.800 -0.0755  0.3857  0.3713
18876THY    CM159216   2.733   7.423   5.665 -0.3872  0.4812  0.4707
18876THY    HM159217   2.761   7.319   5.644  0.0050 -0.5304  0.7643
18876THY    HM259218   2.832   7.468   5.675  0.8607 -1.4459 -1.6015
18876THY    HM359219   2.668   7.452   5.582 -0.6854  0.7957  0.7034
18876THY    CA659220   2.732   7.383   5.911  0.0800  0.1452 -0.0428
18876THY    HA659221   2.808   7.309   5.891  0.4135 -1.5850  0.7370
18877THY      O59222   1.610   1.442   7.290  0.1400 -0.0737 -0.3334
18877THY     HO59223   1.684   1.481   7.242 -0.0280  2.1906  3.1968
18877THY    CA159224   1.594   1.519   7.401 -0.3653 -0.2889 -0.1148
18877THY    CA259225   1.466   1.516   7.459 -0.3787 -0.0450 -0.3143
18877THY    CP159226   1.348   1.434   7.409 -0.8119 -0.5402 -0.2056
18877THY    HP159227   1.381   1.372   7.325 -0.4139  1.2124 -2.5400
18877THY    CP259228   1.236   1.531   7.362 -0.4842 -0.0088  0.6048
18877THY    HP259229   1.278   1.606   7.293  1.3799 -0.9946 -1.2452
18877THY    HP359230   1.193   1.584   7.448 -0.6058  1.0218 -1.1237
18877THY    HP459231   1.157   1.473   7.313 -2.2151 -2.0676  4.2783
18877THY    CP359232   1.288   1.325   7.494 -0.3400  0.4918  0.5554
18877THY    HP559233   1.278   1.359   7.598  1.0728  0.3357  1.5153
18877THY    HP659234   1.363   1.245   7.497 -2.6319  1.5928 -1.7554
18877THY    HP759235   1.204   1.282   7.438  0.2391  1.0451 -1.4349
18877THY    CA359236   1.452   1.606   7.571 -0.9155  0.0524  0.1693
18877THY    HA359237   1.354   1.623   7.615 -0.6985  0.9579 -0.8235
18877THY    CA459238   1.554   1.686   7.623 -0.7152 -0.1691 -0.3318
18877THY    HA459239   1.525   1.759   7.697 -2.2023 -1.1945  0.1506
18877THY    CA559240   1.678   1.680   7.562 -0.3754  0.2995  0.2070
18877THY    CM159241   1.796   1.765   7.602  0.1859 -0.5383 -0.2478
18877THY    HM159242   1.807   1.849   7.533 -2.4535  0.2435  0.8481
18877THY    HM259243   1.891   1.709   7.603  0.3723  0.2535  0.0671
18877THY    HM359244   1.792   1.796   7.707 -0.0790 -0.0719 -1.7839
18877THY    CA659245   1.703   1.602   7.448 -0.5504 -0.3415  0.4220
18877THY    HA659246   1.799   1.607   7.398  1.0557  2.4905  0.0969
18878THY      O59247   4.035   2.810   4.958 -0.4093  0.1539  0.0666
18878THY     HO59248   4.045   2.864   5.038  2.1120 -0.5599  0.8094
18878THY    CA159249   4.056   2.884   4.842  0.1257 -0.7213 -0.4257
18878THY    CA259250   4.128   2.828   4.736 -0.1261  0.4517 -0.5502
18878THY    CP159251   4.204   2.691   4.753 -0.4112 -0.5017 -0.1705
18878THY    HP159252   4.142   2.627   4.817 -0.1335 -1.5942 -1.5618
18878THY    CP259253   4.346   2.726   4.802  0.2315  0.7885 -0.1186
18878THY    HP259254   4.402   2.778   4.724 -2.8964 -0.6409  1.3734
18878THY    HP359255   4.401   2.634   4.824 -0.5170  0.1100 -0.7423
18878THY    HP459256   4.344   2.786   4.894 -0.5732  0.1199  0.9074
18878THY    CP359257   4.229   2.621   4.621  0.6591 -0.7784  0.0123
18878THY    HP559258   4.265   2.518   4.636  2.3283  0.1345  0.7026
18878THY    HP659259   4.301   2.678   4.562 -0.9167 -2.3606  0.4893
18878THY    HP759260   4.139   2.630   4.558  1.6678 -2.2540  0.1955
18878THY    CA359261   4.161   2.913   4.624  0.2319 -0.1643  0.4237
18878THY    HA359262   4.235   2.889   4.547  0.0043 -0.3954  0.4633
18878THY    CA459263   4.091   3.032   4.618  0.2190 -0.3003 -0.3343
18878THY    HA459264   4.094   3.093   4.527  0.2802 -0.7561 -1.0043
18878THY    CA559265   4.019   3.085   4.729 -0.0635  0.1502 -0.4432
18878THY    CM159266   3.944   3.212   4.724 -0.2739 -0.2961 -0.0162
18878THY    HM159267   3.845   3.189   4.683 -0.3601  0.3650 -0.8834
18878THY    HM259268   4.000   3.294   4.677  1.2892  1.1441 -0.1874
18878THY    HM359269   3.926   3.256   4.823  2.0536  0.3011 -0.2958
18878THY    CA659270   4.013   3.017   4.845  0.0401 -0.4261  0.0972
18878THY    HA659271   3.968   3.063   4.933 -0.3307 -0.0740 -0.9043
18879THY      O59272   2.716   4.895   7.454 -0.6350  0.5323 -0.3238
18879THY     HO59273   2.809   4.866   7.452 -0.6995  0.0549 -0.5144
18879THY    CA159274   2.695   4.954   7.331  0.5854 -0.3872 -0.2976
18879THY    CA259275   2.564   4.961   7.280 -0.5484  0.8846 -0.0963
18879THY    CP159276   2.445   4.892   7.352 -0.3657  0.0716 -0.3473
18879THY    HP159277   2.474   4.848   7.449 -0.7163  0.0202 -0.6943
18879THY    CP259278   2.391   4.773   7.267 -0.0110 -1.3019 -0.4645
18879THY    HP259279   2.471   4.699   7.265 -1.2486 -2.1097 -1.8368
18879THY    HP359280   2.375   4.803   7.163 -1.0311 -1.5473 -1.7903
18879THY    HP459281   2.295   4.731   7.301 -0.2623 -0.9456  0.3815
18879THY    CP359282   2.332   4.998   7.373 -0.2897 -0.0502 -0.2937
18879THY    HP559283   2.258   4.968   7.448 -2.3331 -0.7053  2.7103
18879THY    HP659284   2.274   5.022   7.283 -0.5549  0.2201  0.0921
18879THY    HP759285   2.386   5.085   7.411 -0.2874  0.5904 -0.5671
18879THY    CA359286   2.551   5.025   7.155  0.1905 -0.1991 -0.0937
18879THY    HA359287   2.453   5.038   7.110 -0.2122  1.0981  1.8239
18879THY    CA459288   2.654   5.082   7.088 -0.3206  0.5174 -0.7909
18879THY    HA459289   2.646   5.138   6.995 -1.0839  0.7703 -0.4680
18879THY    CA559290   2.778   5.076   7.146 -0.5308  0.0517 -0.0573
18879THY    CM159291   2.887   5.136   7.074  0.0124 -0.1737  0.0001
18879THY    HM159292   2.955   5.177   7.150  0.5368  0.4420 -1.8654
18879THY    HM259293   2.840   5.219   7.020  0.8732 -2.2879 -0.8070
18879THY    HM359294   2.942   5.075   7.001  0.5344 -0.3799  0.6973
18879THY    CA659295   2.802   5.011   7.272  0.0705  0.0197  0.6821
18879THY    HA659296   2.900   5.012   7.318 -0.3343  0.9189  1.6133
18880THY      O59297   9.068   1.294   6.797 -0.0567  0.0343  0.6454
18880THY     HO59298   9.136   1.239   6.756 -0.3565  2.0161 -1.3259
18880THY    CA159299   8.951   1.222   6.781  0.2219  0.4805 -0.2404
18880THY    CA259300   8.938   1.094   6.836  0.5242 -0.6087  0.6393
18880THY    CP159301   9.031   1.046   6.943  0.2524 -0.3134 -0.4328
18880THY    HP159302   9.117   1.114   6.945  1.0721 -1.0538 -1.4167
18880THY    CP259303   9.083   0.909   6.903  0.0191  0.0688  0.4188
18880THY    HP259304   9.001   0.839   6.920 -0.9487 -1.1996  1.1991
18880THY    HP359305   9.161   0.891   6.978 -1.3327  1.5899  0.5792
18880THY    HP459306   9.105   0.906   6.796  0.8564  0.2502 -0.4542
18880THY    CP359307   8.965   1.057   7.084  0.7405  0.5253  0.3389
18880THY    HP559308   8.937   1.161   7.103 -2.8664 -1.1603 -0.1870
18880THY    HP659309   9.032   1.027   7.165 -0.2521  1.6858  1.1400
18880THY    HP759310   8.889   0.983   7.109 -1.1363 -1.0999  1.6076
18880THY    CA359311   8.829   1.010   6.801  0.4277 -0.5205 -0.0706
18880THY    HA359312   8.803   0.917   6.852 -0.3612 -1.1533 -0.2071
18880THY    CA459313   8.738   1.064   6.704 -0.5067 -0.0937  0.2412
18880THY    HA459314   8.656   0.996   6.687 -0.5722  2.0406 -0.3015
18880THY    CA559315   8.756   1.184   6.646 -0.0029 -0.7025 -0.4333
18880THY    CM159316   8.683   1.228   6.526  0.1304 -0.3935  0.3804
18880THY    HM159317   8.587   1.174   6.519  0.1777 -1.9886  0.4669
18880THY    HM259318   8.736   1.192   6.438  0.0642 -0.3931  0.2797
18880THY    HM359319   8.682   1.337   6.533 -1.7472  0.0473  0.3742
18880THY    CA659320   8.860   1.263   6.685 -0.6924  0.6071 -0.4410
18880THY    HA659321   8.874   1.354   6.627  0.9083 -1.4886 -1.9403
18881THY      O59322   3.644   7.011   3.168  0.1666  0.4434  0.1867
18881THY     HO59323   3.713   6.979   3.108  0.0746 -0.5194  1.6951
18881THY    CA159324   3.577   7.092   3.084 -0.3233  0.2953 -0.2968
18881THY    CA259325   3.445   7.137   3.110 -0.1591  0.5096  0.5169
18881THY    CP159326   3.368   7.091   3.235  0.5380 -0.7763  0.1194
18881THY    HP159327   3.422   7.023   3.303  1.4617 -0.0358  1.5373
18881THY    CP259328   3.245   7.005   3.195 -0.3297  0.1049  0.2177
18881THY    HP259329   3.182   7.074   3.138  0.9328  1.4454  2.6168
18881THY    HP359330   3.187   6.971   3.281  0.5810 -0.1511 -2.1469
18881THY    HP459331   3.267   6.915   3.136 -2.0846 -0.2777  0.0097
18881THY    CP359332   3.330   7.220   3.313  1.0734 -0.2498 -0.6882
18881THY    HP559333   3.266   7.286   3.255  0.6466  2.7121  1.7394
18881THY    HP659334   3.427   7.272   3.318 -0.7958 -1.4356  3.2676
18881THY    HP759335   3.287   7.201   3.412 -1.5174 -0.8520  1.4432
18881THY    CA359336   3.376   7.216   3.016 -1.0966 -0.3096 -0.0378
18881THY    HA359337   3.274   7.243   3.038 -0.6510  1.4875  0.3174
18881THY    CA459338   3.442   7.263   2.905  0.1445 -0.1790  0.0165
18881THY    HA459339   3.400   7.334   2.834 -0.7596 -0.9605 -1.2579
18881THY    CA559340   3.575   7.221   2.883  0.4777  0.0800 -1.3009
18881THY    CM159341   3.648   7.273   2.761 -0.0288 -0.3572  0.1908
18881THY    HM159342   3.577   7.268   2.678 -2.0100  1.3102 -0.9519
18881THY    HM259343   3.731   7.204   2.743  0.3976  0.5947  0.4256
18881THY    HM359344   3.681   7.377   2.775  0.9227  2.0674 -0.3648
18881THY    CA659345   3.638   7.137   2.968 -0.3762 -1.0643  0.2436
18881THY    HA659346   3.738   7.101   2.944  0.6485  0.2605  1.9960
18882THY      O59347   8.942   7.078   6.277  0.1613  0.3891  0.3973
18882THY     HO59348   9.021   7.048   6.228 -0.5532 -1.3738  1.2189
18882THY    CA159349   8.952   7.001   6.380  0.5389 -0.1895 -0.3687
18882THY    CA259350   8.865   7.006   6.487  1.1872  0.1097  0.4899
18882THY    CP159351   8.736   7.083   6.476  0.3572 -0.0323  0.0480
18882THY    HP159352   8.736   7.156   6.395 -0.4825  0.7366  0.9237
18882THY    CP259353   8.716   7.178   6.592 -0.4051 -0.3688  0.3667
18882THY    HP259354   8.639   7.253   6.572  0.3339  0.7918  1.4794
18882THY    HP359355   8.804   7.230   6.632 -1.5213  1.9290  0.6585
18882THY    HP459356   8.681   7.121   6.679  0.9170 -0.9079 -1.3488
18882THY    CP359357   8.612   6.992   6.461  0.5296 -0.0288  0.2321
18882THY    HP559358   8.608   6.917   6.541 -0.4152 -0.3821 -0.1080
18882THY    HP659359   8.605   6.942   6.364  3.0115 -1.7706  2.9528
18882THY    HP759360   8.526   7.061   6.466  1.1180 -1.0759  1.0744
18882THY    CA359361   8.884   6.914   6.595  0.0284  0.4407 -0.0278
18882THY    HA359362   8.807   6.895   6.669  0.4669  0.2854 -2.9707
18882THY    CA459363   9.000   6.840   6.599  1.0527 -0.1589 -0.7975
18882THY    HA459364   9.014   6.778   6.687  1.8238 -0.2075 -0.6985
18882THY    CA559365   9.088   6.840   6.494 -0.0822 -1.1672  0.5117
18882THY    CM159366   9.204   6.748   6.508 -0.4074 -0.4892  0.2717
18882THY    HM159367   9.233   6.699   6.414 -0.0971 -0.4963  0.4665
18882THY    HM259368   9.172   6.667   6.574  1.1852  0.6572  0.5256
18882THY    HM359369   9.294   6.792   6.553  0.1802 -1.2396 -0.1436
18882THY    CA659370   9.059   6.909   6.382  1.0166  0.9550 -0.1604
18882THY    HA659371   9.122   6.898   6.294  1.1773  1.0397  0.0628
18883THY      O59372   7.664   3.463   2.198 -0.2297 -0.1684  0.0800
18883THY     HO59373   7.632   3.481   2.288 -1.0186 -0.0125 -1.7651
18883THY    CA159374   7.790   3.433   2.178 -0.9977 -0.0900 -0.1724
18883THY    CA259375   7.854   3.406   2.045  0.7267 -0.5136  0.5406
18883THY    CP159376   7.754   3.380   1.924 -0.7384 -0.0821  0.2119
18883THY    HP159377   7.681   3.460   1.942 -0.9346  0.8127 -0.1590
18883THY    CP259378   7.668   3.255   1.938  0.1028  0.2399  0.3398
18883THY    HP259379   7.616   3.253   2.035 -1.5365 -0.6174 -0.0450
18883THY    HP359380   7.723   3.162   1.922  0.6397  1.6164  0.3900
18883THY    HP459381   7.587   3.258   1.864 -1.2874  1.7055  0.6875
18883THY    CP359382   7.804   3.394   1.776  0.5829 -0.8698  0.2621
18883THY    HP559383   7.719   3.375   1.710 -0.1891 -0.6524  2.6073
18883THY    HP659384   7.890   3.327   1.761  0.1114  0.9117 -0.8025
18883THY    HP759385   7.827   3.500   1.760  1.1329  0.8169  0.4272
18883THY    CA359386   7.991   3.413   2.025 -0.8355  0.0252 -0.6931
18883THY    HA359387   8.036   3.405   1.927 -1.1858 -0.1510 -0.5259
18883THY    CA459388   8.070   3.441   2.137 -0.3745 -0.1095  1.1445
18883THY    HA459389   8.177   3.442   2.118 -0.0656  0.6228 -2.8644
18883THY    CA559390   8.016   3.455   2.261 -0.0997 -0.3942  0.2742
18883THY    CM159391   8.101   3.489   2.376  0.1461 -0.2503  0.0374
18883THY    HM159392   8.182   3.416   2.388  0.0565  1.6016  0.1855
18883THY    HM259393   8.057   3.484   2.476  2.6122  0.9306 -0.0233
18883THY    HM359394   8.140   3.591   2.373 -0.3682  0.8592  0.2740
18883THY    CA659395   7.877   3.450   2.283 -1.5972 -0.0746  0.0416
18883THY    HA659396   7.840   3.466   2.384  1.7524  1.5450 -1.3352
18884THY      O59397   5.107   3.800   4.058  0.1191  0.0318  0.6751
18884THY     HO59398   5.117   3.871   4.123 -0.0427 -0.1696  0.8805
18884THY    CA159399   4.975   3.787   4.041 -0.1032 -0.3706  0.2631
18884THY    CA259400   4.914   3.781   3.911  0.3407  0.1766  0.1049
18884THY    CP159401   4.992   3.758   3.777  0.2551  0.8092  0.0795
18884THY    HP159402   5.093   3.791   3.803  1.6266 -2.3954 -1.2229
18884THY    CP259403   4.931   3.855   3.677  0.9290  0.0785  0.2884
18884THY    HP259404   4.903   3.953   3.719  2.0060  0.3672  0.4886
18884THY    HP359405   4.839   3.805   3.648  1.4299  0.0736 -0.6525
18884THY    HP459406   5.000   3.865   3.592  0.9208 -0.1081 -1.0873
18884THY    CP359407   4.989   3.616   3.729  0.3081  0.3419  0.6634
18884THY    HP559408   5.034   3.552   3.805  1.3442  1.5733  2.7361
18884THY    HP659409   5.046   3.602   3.636  0.5838  0.2300  2.3209
18884THY    HP759410   4.885   3.583   3.717  0.7831 -0.9572 -0.4641
18884THY    CA359411   4.767   3.773   3.913  0.3496  0.4034  0.4039
18884THY    HA359412   4.724   3.762   3.814 -0.0512  0.4875  1.1466
18884THY    CA459413   4.690   3.763   4.033 -0.5642 -0.2149 -0.0254
18884THY    HA459414   4.582   3.771   4.019 -0.6352  1.1627  1.9068
18884THY    CA559415   4.759   3.766   4.157 -0.8524 -0.0816  0.5183
18884THY    CM159416   4.675   3.742   4.279  0.6319  0.1663 -0.1505
18884THY    HM159417   4.629   3.826   4.332 -2.1684  2.9851 -3.1349
18884THY    HM259418   4.740   3.687   4.348 -0.3318  0.5256 -0.8700
18884THY    HM359419   4.593   3.674   4.251  0.3175  0.6974  0.0051
18884THY    CA659420   4.902   3.778   4.163 -0.0003  0.5174  0.6933
18884THY    HA659421   4.945   3.795   4.261  0.5325  0.1037  1.8180
18885THY      O59422   0.900   4.184   5.441  0.0609  0.0956 -0.2388
18885THY     HO59423   0.916   4.091   5.416  0.5542 -0.0308 -0.1254
18885THY    CA159424   0.849   4.173   5.564  0.3753  0.4056  0.1433
18885THY    CA259425   0.816   4.287   5.640 -0.2118  0.0900 -0.2556
18885THY    CP159426   0.833   4.435   5.590  0.7335  0.4543  0.2935
18885THY    HP159427   0.910   4.426   5.513  1.6972  1.3863  0.3305
18885THY    CP259428   0.874   4.534   5.689 -0.6913 -0.0119 -0.0998
18885THY    HP259429   0.915   4.625   5.646 -1.2462  2.4591  1.4122
18885THY    HP359430   0.957   4.492   5.747  0.9651 -2.3120 -0.1124
18885THY    HP459431   0.786   4.564   5.749 -0.1170  0.4859  0.6238
18885THY    CP359432   0.696   4.482   5.540 -0.8507  0.3128  0.6045
18885THY    HP559433   0.667   4.411   5.462  1.2078  0.0641 -0.0257
18885THY    HP659434   0.706   4.582   5.494 -2.0137 -0.1787  0.5154
18885THY    HP759435   0.618   4.482   5.617 -0.2451  0.9320  1.2030
18885THY    CA359436   0.758   4.265   5.773  0.6934  0.4168 -0.3325
18885THY    HA359437   0.724   4.356   5.820 -1.1850  0.0899 -0.8226
18885THY    CA459438   0.728   4.133   5.818  0.4007  0.7345  0.1618
18885THY    HA459439   0.671   4.120   5.909 -3.6460 -1.4245  1.2927
18885THY    CA559440   0.760   4.021   5.739  0.9752 -0.2512 -0.3744
18885THY    CM159441   0.722   3.881   5.788  0.3333 -0.1103  0.1913
18885THY    HM159442   0.810   3.818   5.771  0.2824  1.6146 -0.4074
18885THY    HM259443   0.635   3.829   5.748  0.8677  0.2044 -0.9908
18885THY    HM359444   0.706   3.885   5.897  2.3191  0.2655 -0.5326
18885THY    CA659445   0.814   4.047   5.613 -0.1695  0.7052  0.1338
18885THY    HA659446   0.827   3.960   5.549 -3.2484 -0.0768  0.1411
18886THY      O59447   6.092   2.237   4.000  0.4735  0.1051  0.8141
18886THY     HO59448   6.106   2.145   4.029 -0.6844 -1.5512  0.0705
18886THY    CA159449   6.211   2.284   3.958 -0.3495 -0.1270 -0.1080
18886THY    CA259450   6.249   2.419   3.966  0.9639  0.2408  1.2500
18886THY    CP159451   6.140   2.515   4.000 -0.1565 -0.6873 -0.3928
18886THY    HP159452   6.040   2.470   3.999 -0.9024  0.7904  1.1126
18886THY    CP259453   6.138   2.630   3.896 -1.2036  0.5976 -0.6708
18886THY    HP259454   6.084   2.720   3.929  0.8044  1.3690  0.3119
18886THY    HP359455   6.086   2.594   3.807 -2.0137  0.9991 -0.5101
18886THY    HP459456   6.240   2.670   3.885 -1.9290  2.1759  1.9097
18886THY    CP359457   6.166   2.569   4.146  0.2264 -0.7333  0.4295
18886THY    HP559458   6.137   2.494   4.221  1.5284 -0.5432  0.0866
18886THY    HP659459   6.110   2.661   4.163 -0.2484  0.5034 -0.0666
18886THY    HP759460   6.274   2.581   4.162  0.0228  0.6424  0.5757
18886THY    CA359461   6.381   2.449   3.924 -0.4298  0.1177 -0.8799
18886THY    HA359462   6.408   2.554   3.921 -0.5273  2.9604 -0.6985
18886THY    CA459463   6.468   2.355   3.877 -0.0939 -0.6130 -0.5052
18886THY    HA459464   6.567   2.382   3.842 -0.5894 -0.2962  1.9433
18886THY    CA559465   6.425   2.224   3.869 -0.4637 -0.7517  0.5291
18886THY    CM159466   6.506   2.113   3.807 -0.0821  0.1293  0.5695
18886THY    HM159467   6.506   2.030   3.878  0.5083  0.0618  0.5055
18886THY    HM259468   6.612   2.129   3.782 -0.2893 -0.7638  0.6144
18886THY    HM359469   6.452   2.072   3.721  1.2933 -0.1615 -0.7196
18886THY    CA659470   6.296   2.195   3.908  0.0135 -0.0490 -0.9536
18886THY    HA659471   6.261   2.092   3.901  0.3601 -2.9110 -0.9623
18887THY      O59472   7.670   8.419   2.762 -0.1251 -0.0989 -0.3124
18887THY     HO59473   7.616   8.369   2.825 -0.8344  0.3499  0.9779
18887THY    CA159474   7.755   8.326   2.714  0.9266 -0.2926 -0.3776
18887THY    CA259475   7.876   8.357   2.656  0.0102 -0.6633  0.2533
18887THY    CP159476   7.900   8.503   2.611 -0.3970  0.6448  0.2808
18887THY    HP159477   7.827   8.577   2.643  1.1364 -0.2084  2.2704
18887THY    CP259478   7.896   8.514   2.456 -0.8957  0.4075  0.0490
18887THY    HP259479   7.805   8.471   2.413 -0.3000 -0.5861 -0.2586
18887THY    HP359480   7.980   8.467   2.403 -1.4999 -1.3847  0.9307
18887THY    HP459481   7.908   8.619   2.427 -1.4332  1.3402  0.3777
18887THY    CP359482   8.032   8.567   2.656  0.1561 -0.5715  0.2600
18887THY    HP559483   8.024   8.582   2.764 -0.3706 -0.5675 -0.0075
18887THY    HP659484   8.045   8.667   2.615  0.3034  1.0215  0.9262
18887THY    HP759485   8.125   8.512   2.640 -0.7719  0.2477 -1.6560
18887THY    CA359486   7.976   8.257   2.632 -0.0303 -0.1200 -0.3233
18887THY    HA359487   8.071   8.273   2.582 -0.7551 -1.2582  0.6230
18887THY    CA459488   7.936   8.122   2.653  0.0192  0.1090 -0.0964
18887THY    HA459489   8.000   8.038   2.624  2.5673  3.6012  0.4184
18887THY    CA559490   7.812   8.086   2.712  0.1390 -0.0428 -0.2797
18887THY    CM159491   7.758   7.949   2.723 -0.5950 -0.6563  0.0813
18887THY    HM159492   7.710   7.917   2.630  0.3871 -1.2717  0.3690
18887THY    HM259493   7.695   7.949   2.813 -0.1389 -0.2610  2.4829
18887THY    HM359494   7.845   7.884   2.735 -0.3147  0.4245  0.6263
18887THY    CA659495   7.727   8.197   2.749  0.1595 -0.5734  0.6285
18887THY    HA659496   7.629   8.175   2.791 -0.5092 -2.1577  0.4256
18888THY      O59497   7.155   1.486   5.664 -0.1527 -0.2656 -0.1419
18888THY     HO59498   7.168   1.461   5.757 -0.8994  0.1649  0.9891
18888THY    CA159499   7.232   1.595   5.629 -0.1236  0.4713 -0.5896
18888THY    CA259500   7.267   1.629   5.495 -0.2416  0.1389 -0.1047
18888THY    CP159501   7.202   1.538   5.386  0.1944 -0.3446  0.0407
18888THY    HP159502   7.117   1.487   5.434  0.0116  2.4577  2.7040
18888THY    CP259503   7.309   1.443   5.330 -0.0990 -0.0086 -0.0849
18888THY    HP259504   7.275   1.374   5.253  0.1233  1.7191 -2.2372
18888THY    HP359505   7.360   1.384   5.407  0.9730  0.8419  1.8658
18888THY    HP459506   7.394   1.501   5.291 -1.6760 -2.2650  0.8575
18888THY    CP359507   7.140   1.612   5.265  0.3994 -0.0047 -0.0778
18888THY    HP559508   7.032   1.605   5.248  0.6240 -2.5139  1.0956
18888THY    HP659509   7.190   1.572   5.176  0.6871  0.6659 -1.2391
18888THY    HP759510   7.172   1.717   5.267  1.9650 -2.4847 -0.4115
18888THY    CA359511   7.356   1.737   5.469 -0.6397  0.0324 -0.0979
18888THY    HA359512   7.387   1.759   5.367  0.3350  0.3937  0.2341
18888THY    CA459513   7.418   1.800   5.573 -0.1968 -0.0156 -0.5267
18888THY    HA459514   7.473   1.890   5.546  1.4810  0.4023 -1.3756
18888THY    CA559515   7.378   1.775   5.703  0.6362  0.5971  0.3281
18888THY    CM159516   7.418   1.866   5.812  0.0329  0.1177  0.5856
18888THY    HM159517   7.381   1.969   5.802 -0.2387  1.2573  0.6025
18888THY    HM259518   7.527   1.878   5.822  0.0633  1.4588 -0.5873
18888THY    HM359519   7.380   1.838   5.910 -3.7225 -1.4377 -0.3801
18888THY    CA659520   7.284   1.678   5.733  0.6466  0.1742 -0.2544
18888THY    HA659521   7.272   1.653   5.838 -0.3795  0.3358  0.8621
18889THY      O59522   8.805   3.815   2.413 -1.0739  0.4635  0.2852
18889THY     HO59523   8.892   3.857   2.420 -0.1746  0.6280 -1.4916
18889THY    CA159524   8.820   3.691   2.457 -0.7770 -0.2393  0.1136
18889THY    CA259525   8.713   3.608   2.487 -0.2218  0.0415  0.0817
18889THY    CP159526   8.572   3.646   2.453  0.4227  0.5404 -0.2598
18889THY    HP159527   8.569   3.731   2.383 -2.9960  0.2918 -0.4657
18889THY    CP259528   8.485   3.666   2.575  0.0706 -0.1048 -0.0740
18889THY    HP259529   8.508   3.748   2.645  0.1253 -0.6207  0.3597
18889THY    HP359530   8.467   3.573   2.629 -0.3866  2.7522  1.5770
18889THY    HP459531   8.391   3.686   2.523  0.7892 -1.2717  0.4314
18889THY    CP359532   8.503   3.538   2.373 -0.4345 -0.5461 -0.1742
18889THY    HP559533   8.574   3.504   2.296 -0.1016 -0.8393  1.1159
18889THY    HP659534   8.424   3.593   2.321  0.5976  1.7017  3.8915
18889THY    HP759535   8.463   3.458   2.435 -0.0208  0.4694  0.3897
18889THY    CA359536   8.740   3.485   2.549 -0.0350 -0.0736  0.3329
18889THY    HA359537   8.656   3.420   2.571 -0.5850  0.6213  1.2514
18889THY    CA459538   8.877   3.440   2.575 -0.2401  0.0316 -0.0059
18889THY    HA459539   8.899   3.349   2.631 -1.3395 -1.5512 -1.2998
18889THY    CA559540   8.980   3.535   2.542 -0.6556 -0.1435 -0.0241
18889THY    CM159541   9.122   3.502   2.591 -0.6397  0.1391  0.4772
18889THY    HM159542   9.201   3.571   2.560 -2.8968 -1.7445  2.3783
18889THY    HM259543   9.149   3.396   2.577 -2.1991 -0.3535  0.1114
18889THY    HM359544   9.103   3.525   2.696 -0.5732  0.1996  0.2615
18889THY    CA659545   8.951   3.654   2.479  0.1932 -0.1448 -0.2044
18889THY    HA659546   9.033   3.724   2.464 -0.8728  0.0723  1.1417
18890THY      O59547   5.361   1.082   7.232  0.0047  0.2351  0.0884
18890THY     HO59548   5.350   1.170   7.272  0.8880  0.6101  0.0319
18890THY    CA159549   5.406   1.082   7.104 -0.7236  0.0570 -0.1945
18890THY    CA259550   5.424   0.963   7.029 -0.4152 -0.4032 -0.0851
18890THY    CP159551   5.395   0.824   7.094 -0.1990 -0.1854 -0.3476
18890THY    HP159552   5.419   0.818   7.201 -0.8771  0.2248  2.7426
18890THY    CP259553   5.455   0.699   7.022 -0.0672 -0.4073 -0.7800
18890THY    HP259554   5.454   0.611   7.087  0.2924  2.3581  1.1125
18890THY    HP359555   5.557   0.728   6.994 -0.5035 -2.0114 -0.7294
18890THY    HP459556   5.410   0.689   6.923  1.9697 -1.2716 -1.9194
18890THY    CP359557   5.244   0.802   7.083 -0.7460  0.3147  0.1126
18890THY    HP559558   5.199   0.889   7.134 -0.7259 -0.3164  0.4955
18890THY    HP659559   5.210   0.708   7.129 -0.6784 -0.0281 -0.0821
18890THY    HP759560   5.217   0.788   6.978 -1.2774  0.6947 -2.2028
18890THY    CA359561   5.467   0.972   6.900  0.0523  0.7955 -0.8229
18890THY    HA359562   5.491   0.888   6.837 -0.3287 -1.1338  0.4571
18890THY    CA459563   5.470   1.097   6.838  0.4492 -0.7326 -1.0271
18890THY    HA459564   5.486   1.105   6.731 -0.4407 -0.7756  0.6756
18890THY    CA559565   5.451   1.218   6.909  0.0164 -0.4709 -0.0093
18890THY    CM159566   5.473   1.355   6.848  0.5807  0.4302  0.1209
18890THY    HM159567   5.375   1.397   6.823  1.9905 -2.2133  2.1031
18890THY    HM259568   5.523   1.347   6.751 -0.9156 -0.3692 -0.0288
18890THY    HM359569   5.521   1.429   6.913  0.4676  0.4713  0.1596
18890THY    CA659570   5.426   1.204   7.041 -0.2669 -0.2625 -0.6434
18890THY    HA659571   5.422   1.297   7.097  2.9605  1.6327 -1.5032
18891THY      O59572   8.709   2.139   4.223  0.1068 -0.0180  0.0414
18891THY     HO59573   8.648   2.063   4.225  0.0345  2.2593  0.0749
18891THY    CA159574   8.629   2.223   4.165  1.0019  0.3527  0.4608
18891THY    CA259575   8.654   2.359   4.147 -0.1205 -0.1329 -0.5706
18891THY    CP159576   8.788   2.423   4.204 -0.3839  0.2557 -0.0709
18891THY    HP159577   8.848   2.352   4.264  3.1524  0.5633  2.8611
18891THY    CP259578   8.753   2.527   4.305  0.4681 -0.1415 -0.3239
18891THY    HP259579   8.681   2.484   4.375  0.7828  0.7801  0.5988
18891THY    HP359580   8.720   2.624   4.265  1.1290  1.8006  0.7613
18891THY    HP459581   8.845   2.538   4.364  0.1090  0.4106 -0.2512
18891THY    CP359582   8.883   2.484   4.092 -0.2534  0.4716 -0.0539
18891THY    HP559583   8.832   2.563   4.036  0.5023 -1.2163 -0.7122
18891THY    HP659584   8.908   2.401   4.025 -0.4332  0.5531 -0.1749
18891THY    HP759585   8.972   2.525   4.142 -0.6089  1.1019 -0.0303
18891THY    CA359586   8.560   2.441   4.087  0.1207 -0.1803 -0.8042
18891THY    HA359587   8.569   2.548   4.070  0.1869  1.2858 -0.5615
18891THY    CA459588   8.432   2.395   4.065  0.6794 -0.1315  0.1337
18891THY    HA459589   8.357   2.457   4.017  2.1083 -1.2497  1.0598
18891THY    CA559590   8.402   2.259   4.086  0.7364  0.6812  0.1065
18891THY    CM159591   8.261   2.195   4.057 -0.1111  0.2119 -0.1104
18891THY    HM159592   8.270   2.116   3.981 -0.6516  2.1391 -2.1204
18891THY    HM259593   8.191   2.271   4.022 -0.8294 -1.4567 -1.4621
18891THY    HM359594   8.228   2.137   4.144 -0.9264 -0.6510 -0.9705
18891THY    CA659595   8.499   2.176   4.143 -1.2438  0.4333  0.0046
18891THY    HA659596   8.475   2.071   4.156  0.3312 -0.9315 -0.5710
18892THY      O59597   4.070   4.390   3.987  0.0648 -0.0838  0.2177
18892THY     HO59598   4.059   4.443   3.906 -0.8393 -0.8856 -1.1515
18892THY    CA159599   4.055   4.477   4.094  0.1440  0.1454 -0.0898
18892THY    CA259600   4.080   4.442   4.227 -0.1855 -0.6205 -0.4663
18892THY    CP159601   4.128   4.311   4.272 -0.2347  0.2586  0.6912
18892THY    HP159602   4.183   4.258   4.193 -0.0849  0.1733  0.9691
18892THY    CP259603   4.007   4.214   4.308 -0.0308  0.1325  0.3889
18892THY    HP259604   4.045   4.124   4.358  0.6978  1.0099  1.1627
18892THY    HP359605   3.946   4.196   4.219 -0.2429  0.1557  0.9528
18892THY    HP459606   3.941   4.255   4.386  0.2493 -0.0096  1.1304
18892THY    CP359607   4.227   4.319   4.394 -0.7300  0.6187  0.0824
18892THY    HP559608   4.288   4.410   4.388  1.0706 -0.3695 -1.1269
18892THY    HP659609   4.293   4.232   4.400 -1.2794 -0.2088 -0.4099
18892THY    HP759610   4.178   4.307   4.491 -1.4512  0.0908 -1.6215
18892THY    CA359611   4.051   4.540   4.329  0.7332  0.2168  0.7046
18892THY    HA359612   4.059   4.515   4.434  1.8155 -0.2453 -1.0980
18892THY    CA459613   4.014   4.668   4.296 -0.0690 -0.2315 -0.0770
18892THY    HA459614   3.994   4.740   4.374 -3.6570 -1.0586  0.0327
18892THY    CA559615   3.991   4.700   4.164 -0.3898 -0.0838  0.3979
18892THY    CM159616   3.920   4.828   4.126  0.0476  0.3846 -0.3589
18892THY    HM159617   3.882   4.891   4.207 -1.4193 -0.5253 -0.0375
18892THY    HM259618   3.833   4.802   4.066  0.7013 -0.9551  0.4374
18892THY    HM359619   3.983   4.879   4.053 -1.8385 -0.6078  0.6234
18892THY    CA659620   4.005   4.602   4.065 -0.2513 -0.0212 -0.9502
18892THY    HA659621   3.978   4.632   3.964  0.7547  0.2809  1.1164
18893THY      O59622   0.818   6.158   2.281 -0.3153 -0.0380 -0.7532
18893THY     HO59623   0.854   6.071   2.307 -0.2888  2.4138 -0.0821
18893THY    CA159624   0.908   6.220   2.197 -0.0055 -0.1095 -0.0360
18893THY    CA259625   0.913   6.364   2.176 -0.0370  0.4779  0.5461
18893THY    CP159626   0.823   6.466   2.253 -0.3228  1.0138 -0.2118
18893THY    HP159627   0.759   6.402   2.314  0.0857  0.3252 -1.3222
18893THY    CP259628   0.748   6.548   2.149 -0.1215 -0.5856 -0.0011
18893THY    HP259629   0.669   6.606   2.197 -0.0274  0.2025 -0.5151
18893THY    HP359630   0.686   6.484   2.086 -0.9383  0.0457  0.1626
18893THY    HP459631   0.824   6.609   2.097  0.1350 -1.1707 -0.8076
18893THY    CP359632   0.902   6.547   2.354 -0.2311 -0.1212 -0.6623
18893THY    HP559633   0.845   6.634   2.389  0.1104  2.1701 -1.3034
18893THY    HP659634   0.994   6.587   2.311 -0.4483  1.4110  1.7187
18893THY    HP759635   0.939   6.488   2.438 -4.1126  2.4945  0.2047
18893THY    CA359636   1.006   6.419   2.086 -0.1059  1.0806  0.0214
18893THY    HA359637   1.010   6.528   2.084  2.4090  0.3977 -0.0233
18893THY    CA459638   1.105   6.337   2.028 -0.5285 -0.4589 -0.2834
18893THY    HA459639   1.174   6.384   1.958 -0.9361 -2.1740 -2.0997
18893THY    CA559640   1.107   6.196   2.060  0.5017  0.2655 -0.6208
18893THY    CM159641   1.223   6.110   2.008  0.9923  0.4888  0.2827
18893THY    HM159642   1.255   6.036   2.082 -0.1855 -2.1046 -3.0964
18893THY    HM259643   1.311   6.171   1.984  1.2113 -1.9548 -0.8564
18893THY    HM359644   1.185   6.060   1.918  2.5910 -0.2681  0.3726
18893THY    CA659645   1.014   6.146   2.145 -0.3016 -0.4870  0.4422
18893THY    HA659646   1.011   6.038   2.161  1.3981 -0.5227  0.3667
18894THY      O59647   3.492   3.764   4.890  0.6304  1.1041  0.6002
18894THY     HO59648   3.481   3.838   4.951  0.8209  1.2862  0.4800
18894THY    CA159649   3.549   3.803   4.774 -0.2518  1.0276  0.2083
18894THY    CA259650   3.587   3.709   4.673  0.7241  0.1113 -0.7527
18894THY    CP159651   3.594   3.562   4.710 -0.5996  0.2921  0.5151
18894THY    HP159652   3.560   3.547   4.814  0.8749  0.6452 -0.6498
18894THY    CP259653   3.740   3.508   4.712 -0.0252  0.3162  0.4082
18894THY    HP259654   3.809   3.582   4.756  4.0276 -1.5664 -1.9121
18894THY    HP359655   3.786   3.494   4.614  0.1940  0.4486  0.1894
18894THY    HP459656   3.745   3.414   4.767  1.1591 -0.3294  0.0754
18894THY    CP359657   3.514   3.465   4.623 -0.2442  0.0394  0.1669
18894THY    HP559658   3.412   3.504   4.630 -0.9315  2.2352 -1.7599
18894THY    HP659659   3.503   3.373   4.682 -2.5400  2.5918  1.9173
18894THY    HP759660   3.553   3.448   4.522  0.1720  0.0809  0.8613
18894THY    CA359661   3.651   3.751   4.562  0.1382 -0.0705 -0.2826
18894THY    HA359662   3.702   3.678   4.500  2.4779  0.9048  0.4539
18894THY    CA459663   3.671   3.893   4.544  0.4699  0.6327  0.3213
18894THY    HA459664   3.727   3.937   4.462  0.3467  0.7540  0.7062
18894THY    CA559665   3.614   3.984   4.629  0.3723  0.0029  0.2872
18894THY    CM159666   3.624   4.138   4.620  0.1146 -0.5659  0.2106
18894THY    HM159667   3.618   4.179   4.721  1.6905  0.3061 -1.5890
18894THY    HM259668   3.546   4.184   4.558 -2.0130  1.2820 -0.6688
18894THY    HM359669   3.724   4.156   4.580 -0.1288 -0.5291  1.7492
18894THY    CA659670   3.559   3.939   4.750  0.2248  0.2575  0.3194
18894THY    HA659671   3.525   4.003   4.831 -0.1550 -0.3068  0.8361
18895THY      O59672   7.897   2.959   4.192 -0.1308 -0.4638 -0.3813
18895THY     HO59673   7.814   2.961   4.142 -0.0914 -0.5384 -0.6027
18895THY    CA159674   7.916   2.827   4.228 -0.0382 -0.0148 -0.3211
18895THY    CA259675   7.985   2.792   4.348  0.0144 -0.2078 -0.1051
18895THY    CP159676   8.038   2.902   4.442  0.8620  0.1343  0.2307
18895THY    HP159677   8.002   2.998   4.404 -0.1849 -3.1937 -1.3257
18895THY    CP259678   8.191   2.915   4.472 -0.6157 -0.2377  0.8672
18895THY    HP259679   8.237   2.830   4.524 -0.3975 -0.9497  0.5397
18895THY    HP359680   8.221   3.002   4.531  2.6531 -1.2504  0.5466
18895THY    HP459681   8.258   2.919   4.386  0.8610  0.8368  0.1468
18895THY    CP359682   7.970   2.890   4.583  0.1665 -0.2925 -0.5996
18895THY    HP559683   7.860   2.884   4.579  0.1354  0.1733 -0.3830
18895THY    HP659684   8.001   2.979   4.638 -0.2907 -0.6039 -0.2416
18895THY    HP759685   8.007   2.798   4.630  1.7415 -0.0919  0.1027
18895THY    CA359686   8.006   2.655   4.379 -0.6982  0.1833  0.3264
18895THY    HA359687   8.070   2.628   4.461  0.8044 -1.3447 -0.9748
18895THY    CA459688   7.955   2.558   4.292  0.1061  0.1768 -0.1882
18895THY    HA459689   7.953   2.455   4.326 -3.2123  0.9956  0.0556
18895THY    CA559690   7.881   2.593   4.182  0.0159  0.2169 -0.3507
18895THY    CM159691   7.828   2.488   4.095  0.8807  0.7387  0.8619
18895THY    HM159692   7.829   2.522   3.991 -1.1161 -0.2366 -1.6866
18895THY    HM259693   7.727   2.450   4.117  1.6445  0.6792 -1.3731
18895THY    HM359694   7.896   2.403   4.109  1.2710  1.6769  1.3131
18895THY    CA659695   7.863   2.731   4.148 -0.3174 -0.3563  0.5141
18895THY    HA659696   7.818   2.760   4.053  0.1644 -0.4112  1.0935
18896THY      O59697   6.238   2.100   2.161  0.5907  0.0148  0.0864
18896THY     HO59698   6.275   2.045   2.090  0.4003 -0.6827  0.8350
18896THY    CA159699   6.319   2.212   2.169 -0.3766  0.3387  0.7097
18896THY    CA259700   6.301   2.318   2.264 -0.1329 -0.0381  0.8326
18896THY    CP159701   6.175   2.312   2.353 -0.3624  0.4833 -0.7704
18896THY    HP159702   6.114   2.222   2.335 -1.2140 -0.3366 -0.0531
18896THY    CP259703   6.093   2.446   2.326 -0.1607  0.1647 -0.1207
18896THY    HP259704   6.066   2.468   2.222 -0.2688 -0.1580 -1.6739
18896THY    HP359705   6.158   2.524   2.368 -1.1424  2.4847 -0.4538
18896THY    HP459706   6.003   2.447   2.390 -0.6537 -0.5076 -0.5734
18896THY    CP359707   6.227   2.303   2.498 -0.0777  0.2565  0.4469
18896THY    HP559708   6.301   2.381   2.521  0.5960  1.1579 -0.4322
18896THY    HP659709   6.255   2.198   2.514 -1.6208 -0.7551 -0.1526
18896THY    HP759710   6.144   2.325   2.566  1.1333  1.8264  0.3085
18896THY    CA359711   6.387   2.429   2.269  0.0307  0.3269  0.4487
18896THY    HA359712   6.375   2.515   2.335 -2.1088 -0.0631  0.5019
18896THY    CA459713   6.498   2.429   2.176  0.2525 -0.7351 -0.2564
18896THY    HA459714   6.562   2.517   2.175  1.4920 -0.5476 -1.1190
18896THY    CA559715   6.517   2.331   2.080  0.0325  0.4133  0.4415
18896THY    CM159716   6.614   2.338   1.958  0.1333 -0.3565 -0.1552
18896THY    HM159717   6.703   2.395   1.986 -0.1951  1.4096 -0.4468
18896THY    HM259718   6.572   2.388   1.869 -1.1162 -0.2257 -0.9250
18896THY    HM359719   6.655   2.242   1.926 -0.1105  0.7375 -0.6372
18896THY    CA659720   6.435   2.219   2.082  0.8097 -0.1489  0.1850
18896THY    HA659721   6.443   2.132   2.018 -0.9593 -0.1083 -0.0525
18897THY      O59722   5.780   6.176   4.135  0.3005  0.4251  0.1317
18897THY     HO59723   5.765   6.255   4.081  1.1443  0.4787  0.3419
18897THY    CA159724   5.734   6.076   4.064 -0.7770  0.1715  0.2661
18897THY    CA259725   5.813   5.957   4.055  0.2223 -0.1096  0.1504
18897THY    CP159726   5.925   5.933   4.146 -0.8763 -0.0315  0.5805
18897THY    HP159727   5.967   6.029   4.179  0.2612 -0.3415  0.2016
18897THY    CP259728   6.039   5.858   4.067 -0.6882  0.0725  0.0231
18897THY    HP259729   6.028   5.749   4.068 -0.0577  2.9381 -0.0897
18897THY    HP359730   6.129   5.871   4.128 -0.3252 -0.7783  1.7732
18897THY    HP459731   6.062   5.908   3.973  1.9230  0.3657 -0.5130
18897THY    CP359732   5.881   5.867   4.277 -1.2165  0.5019  0.0115
18897THY    HP559733   5.785   5.815   4.264 -1.9875  1.2570  1.1967
18897THY    HP659734   5.873   5.950   4.348  1.0950  0.6878  0.1512
18897THY    HP759735   5.958   5.797   4.311  1.5867 -2.5301  1.3367
18897THY    CA359736   5.764   5.848   3.976 -0.0684  0.3084  0.2540
18897THY    HA359737   5.814   5.751   3.975  1.3054 -1.0969  0.9173
18897THY    CA459738   5.645   5.868   3.898 -0.1377  0.3226 -0.9305
18897THY    HA459739   5.623   5.793   3.822  0.9765 -1.2264  0.2205
18897THY    CA559740   5.572   5.990   3.900  0.0468 -0.8432  0.4484
18897THY    CM159741   5.455   6.007   3.807  0.2602  0.0548  0.3465
18897THY    HM159742   5.473   6.082   3.730 -2.6770 -1.2323 -0.1568
18897THY    HM259743   5.368   6.043   3.863  0.1634  0.7071 -0.8582
18897THY    HM359744   5.434   5.912   3.757 -1.2976 -0.7674  1.0999
18897THY    CA659745   5.619   6.097   3.984  0.2772  1.0719  0.6121
18897THY    HA659746   5.564   6.190   3.992 -1.0443  1.2982 -0.1645
18898THY      O59747   8.122   6.480   2.340 -0.0299  0.1553  0.0207
18898THY     HO59748   8.182   6.494   2.264  0.2036  0.4345  0.5779
18898THY    CA159749   8.197   6.428   2.438  0.5485 -0.2476 -0.0817
18898THY    CA259750   8.150   6.378   2.558  0.1215 -0.1617  0.0351
18898THY    CP159751   8.001   6.393   2.590 -0.5146 -0.4139 -0.1319
18898THY    HP159752   7.951   6.480   2.546  0.8137  1.4984  1.6930
18898THY    CP259753   7.976   6.412   2.742  0.6551  0.2859  0.4993
18898THY    HP259754   7.979   6.318   2.798 -0.1972 -0.7492 -0.1740
18898THY    HP359755   7.876   6.453   2.757  0.7694  2.0266  0.2044
18898THY    HP459756   8.046   6.484   2.786  1.2000  0.8898 -0.3741
18898THY    CP359757   7.936   6.263   2.544  0.0182  0.0531 -0.2681
18898THY    HP559758   7.827   6.273   2.556  0.1990  0.0324  2.9741
18898THY    HP659759   7.974   6.168   2.584  1.5624 -2.0343 -0.6052
18898THY    HP759760   7.931   6.249   2.435  0.9022  0.1485 -1.4300
18898THY    CA359761   8.229   6.308   2.648 -0.3054 -0.2628  0.3152
18898THY    HA359762   8.189   6.269   2.741  0.6991 -0.1870 -0.5793
18898THY    CA459763   8.358   6.281   2.606 -0.4999  0.4207  0.1397
18898THY    HA459764   8.427   6.217   2.660  1.2650 -1.3306  0.4813
18898THY    CA559765   8.409   6.334   2.491  0.0767  0.2172 -0.2278
18898THY    CM159766   8.556   6.323   2.458  0.1348 -0.6630  0.3615
18898THY    HM159767   8.611   6.299   2.550 -1.1151  1.0179  3.2604
18898THY    HM259768   8.595   6.415   2.413  0.1940 -2.4941 -0.5303
18898THY    HM359769   8.565   6.239   2.389 -0.0664  0.1596 -0.3488
18898THY    CA659770   8.330   6.412   2.411  0.0573 -0.3405 -0.7031
18898THY    HA659771   8.381   6.447   2.322 -0.3697 -0.6218 -0.7904
18899THY      O59772   1.294   2.503   2.490 -0.3332  0.8179 -0.2673
18899THY     HO59773   1.212   2.481   2.537 -0.6903 -0.0699 -0.8889
18899THY    CA159774   1.271   2.609   2.408 -0.2451  0.1227  0.3167
18899THY    CA259775   1.372   2.660   2.331  0.7447  0.3067  0.2272
18899THY    CP159776   1.513   2.604   2.340  0.0184  0.4398 -0.1461
18899THY    HP159777   1.517   2.512   2.400  1.1075 -0.5822 -0.7958
18899THY    CP259778   1.609   2.713   2.401 -0.1627  0.4758  0.1109
18899THY    HP259779   1.701   2.664   2.436 -1.4408  1.5253 -1.6847
18899THY    HP359780   1.549   2.765   2.477 -0.8008  0.4923 -0.6309
18899THY    HP459781   1.639   2.774   2.315 -0.2536  0.2074 -0.2182
18899THY    CP359782   1.564   2.555   2.198  0.3840  0.1856 -0.3613
18899THY    HP559783   1.589   2.642   2.137  3.3065  3.0573  1.0299
18899THY    HP659784   1.487   2.489   2.157 -0.0996  1.9178 -0.9409
18899THY    HP759785   1.658   2.503   2.221 -0.5459  2.6031 -1.1282
18899THY    CA359786   1.339   2.768   2.238  0.1764  0.1281  0.3785
18899THY    HA359787   1.419   2.810   2.178  1.0664 -0.9381 -2.5830
18899THY    CA459788   1.209   2.820   2.238  0.1397 -0.2603 -0.2457
18899THY    HA459789   1.191   2.914   2.186 -2.3982  1.0240  0.0653
18899THY    CA559790   1.111   2.770   2.324  0.0824 -0.2739  0.5536
18899THY    CM159791   0.969   2.812   2.322  0.6020  0.2021  0.0223
18899THY    HM159792   0.918   2.805   2.419 -1.9156 -0.9790  0.8744
18899THY    HM259793   0.908   2.761   2.247 -0.3837  0.9169  0.1345
18899THY    HM359794   0.963   2.917   2.293 -0.4452  0.3531  0.0117
18899THY    CA659795   1.151   2.664   2.404  0.4462  0.5721 -0.7995
18899THY    HA659796   1.073   2.624   2.468  0.7103  2.1897  1.1154
18900THY      O59797   3.692   2.843   7.153  0.3436  0.0974 -0.3105
18900THY     HO59798   3.762   2.909   7.141 -0.9010 -0.4774  0.9413
18900THY    CA159799   3.588   2.912   7.216 -0.0655  0.2221  0.0233
18900THY    CA259800   3.466   2.854   7.259  0.3015  0.4874 -0.1500
18900THY    CP159801   3.432   2.715   7.214 -0.0260  0.1802  0.3403
18900THY    HP159802   3.525   2.663   7.189 -0.2942 -3.2518  1.3118
18900THY    CP259803   3.351   2.716   7.078 -0.0178  0.0017  0.4323
18900THY    HP259804   3.312   2.618   7.047  1.3287 -3.5875  0.8633
18900THY    HP359805   3.417   2.744   6.995 -0.0775  0.2395  1.3136
18900THY    HP459806   3.270   2.789   7.075 -0.4194 -1.6788 -0.0480
18900THY    CP359807   3.357   2.632   7.319 -0.4835  0.0221  0.1261
18900THY    HP559808   3.400   2.672   7.411  1.5706 -1.3040  1.1654
18900THY    HP659809   3.386   2.526   7.317  1.4784  0.9636  0.6015
18900THY    HP759810   3.248   2.647   7.322 -0.1460  1.1216  2.9405
18900THY    CA359811   3.386   2.934   7.349 -0.1037  0.1112  0.5582
18900THY    HA359812   3.291   2.904   7.391  0.3118  0.5515 -0.1793
18900THY    CA459813   3.433   3.059   7.392  0.4579 -0.5914  0.2990
18900THY    HA459814   3.364   3.117   7.452 -2.4203 -2.8051 -0.5803
18900THY    CA559815   3.544   3.116   7.331 -0.2468 -0.0815  0.0634
18900THY    CM159816   3.580   3.256   7.370  0.0941 -0.4283  0.4512
18900THY    HM159817   3.651   3.291   7.294  0.4107 -0.4416 -0.2084
18900THY    HM259818   3.641   3.258   7.461  0.9638 -1.0106  2.0145
18900THY    HM359819   3.501   3.326   7.400  1.6159 -2.6415  3.3383
18900THY    CA659820   3.629   3.036   7.256 -0.5060 -0.1920 -0.2209
18900THY    HA659821   3.724   3.081   7.226 -0.1960 -1.5546 -1.6705
18901THY      O59822   0.459   3.153   5.743 -0.2214  0.5485 -0.2601
18901THY     HO59823   0.371   3.141   5.703 -0.7110  1.4378  0.2086
18901THY    CA159824   0.436   3.137   5.878  0.6242  0.2096  0.4331
18901THY    CA259825   0.504   3.205   5.976 -0.2405 -0.9570 -0.0894
18901THY    CP159826   0.626   3.297   5.933  1.1884 -0.3012 -0.5029
18901THY    HP159827   0.651   3.271   5.830  0.2878 -0.1923 -1.8782
18901THY    CP259828   0.747   3.282   6.021  0.4485 -0.0240  0.2927
18901THY    HP259829   0.781   3.178   6.011  0.3092 -0.3067  0.2753
18901THY    HP359830   0.727   3.288   6.129 -1.4787 -0.3100 -0.4600
18901THY    HP459831   0.830   3.349   5.994  1.1627 -0.8444 -0.8744
18901THY    CP359832   0.573   3.441   5.938 -0.0733 -0.7989 -0.3092
18901THY    HP559833   0.487   3.453   5.871 -0.3988 -0.2263  0.6798
18901THY    HP659834   0.655   3.500   5.895  1.1556  0.4240 -1.0805
18901THY    HP759835   0.559   3.474   6.042  0.6192 -0.7830 -0.0457
18901THY    CA359836   0.458   3.192   6.112  0.5010 -0.0255 -0.9139
18901THY    HA359837   0.508   3.252   6.187 -1.3167 -0.4743  1.2823
18901THY    CA459838   0.354   3.107   6.147 -0.2880  0.3466  0.8278
18901THY    HA459839   0.320   3.095   6.250 -1.1422  0.0084  0.2411
18901THY    CA559840   0.295   3.023   6.045 -0.5563 -0.2314  0.0547
18901THY    CM159841   0.195   2.927   6.094 -0.8168  0.2720 -0.1210
18901THY    HM159842   0.219   2.917   6.200 -0.2628  0.3848  1.8868
18901THY    HM259843   0.195   2.827   6.050  1.7486 -0.1833  0.0069
18901THY    HM359844   0.092   2.961   6.080 -0.3815  0.1951  1.2358
18901THY    CA659845   0.344   3.035   5.913  0.5987 -0.8466 -0.1330
18901THY    HA659846   0.284   2.981   5.840  0.9401 -1.4273  0.2640
18902THY      O59847   8.707   8.500   6.633  0.2821  0.1506 -0.7017
18902THY     HO59848   8.726   8.405   6.640  2.1459 -0.8779 -0.4455
18902THY    CA159849   8.734   8.539   6.507 -1.0224 -0.9791 -0.1159
18902THY    CA259850   8.739   8.674   6.467  0.4537 -0.1121  0.3536
18902THY    CP159851   8.671   8.788   6.551  0.0595  0.3621 -0.6106
18902THY    HP159852   8.611   8.734   6.626  1.7890  2.4159  0.1905
18902THY    CP259853   8.578   8.871   6.467 -0.3148 -0.1597 -0.5284
18902THY    HP259854   8.645   8.911   6.390 -0.1353  0.4403  0.3600
18902THY    HP359855   8.542   8.954   6.530 -0.2712  1.0224 -1.3735
18902THY    HP459856   8.490   8.815   6.432 -1.5061  0.7408  0.7032
18902THY    CP359857   8.775   8.885   6.612 -0.8985  0.4080  0.6214
18902THY    HP559858   8.844   8.829   6.676 -0.6481 -0.4436 -0.0661
18902THY    HP659859   8.730   8.960   6.679 -1.0525  2.3508 -1.1231
18902THY    HP759860   8.840   8.931   6.537  0.2440  0.5675 -0.6803
18902THY    CA359861   8.803   8.700   6.346 -0.5601 -0.0217 -0.1734
18902THY    HA359862   8.815   8.802   6.311  1.5059  0.5407 -0.1590
18902THY    CA459863   8.843   8.599   6.254 -0.0023 -0.4291  0.9797
18902THY    HA459864   8.892   8.621   6.160 -0.4668 -0.7628  0.6132
18902THY    CA559865   8.826   8.463   6.291  1.3177 -0.8917 -0.8822
18902THY    CM159866   8.867   8.357   6.194  0.1442  1.0079 -0.4775
18902THY    HM159867   8.829   8.257   6.220 -1.1987  1.7080  0.1901
18902THY    HM259868   8.975   8.345   6.197 -0.0666  2.1413 -2.5822
18902THY    HM359869   8.830   8.385   6.094 -0.1000  0.6951 -1.8412
18902THY    CA659870   8.775   8.440   6.420 -0.0119  0.3648  0.7515
18902THY    HA659871   8.767   8.334   6.441 -1.5329  0.2376  0.8113
18903THY      O59872   5.572   2.555   5.073 -0.2918 -0.0650  0.0292
18903THY     HO59873   5.568   2.596   5.161  0.7735  0.3171 -0.6459
18903THY    CA159874   5.443   2.537   5.027 -0.0719  0.0939  0.4613
18903THY    CA259875   5.424   2.507   4.888  0.1790  0.2335 -0.1501
18903THY    CP159876   5.541   2.505   4.783 -0.2355 -0.9178  0.3880
18903THY    HP159877   5.625   2.456   4.834  0.1049 -0.9034  0.9746
18903THY    CP259878   5.580   2.641   4.739  0.3525  0.2877  0.3896
18903THY    HP259879   5.633   2.695   4.818  0.8124 -0.4154  0.9719
18903THY    HP359880   5.488   2.695   4.713  0.1807 -1.2165 -0.5729
18903THY    HP459881   5.647   2.637   4.653  0.6630  0.4652  1.4910
18903THY    CP359882   5.516   2.418   4.652 -0.1936  0.6382 -0.9012
18903THY    HP559883   5.615   2.380   4.623 -0.7991 -1.1984 -1.1639
18903THY    HP659884   5.470   2.472   4.569 -1.4947 -0.1778 -3.1084
18903THY    HP759885   5.454   2.329   4.669 -2.4740 -1.1994  0.2349
18903THY    CA359886   5.290   2.476   4.850  0.8007 -0.0301 -0.3467
18903THY    HA359887   5.273   2.448   4.746 -0.6271 -0.1033  0.6697
18903THY    CA459888   5.186   2.476   4.943 -0.0553  0.0063 -0.3009
18903THY    HA459889   5.083   2.456   4.918 -0.1035  0.2944 -0.4162
18903THY    CA559890   5.207   2.513   5.082 -0.0265 -0.0834  0.3905
18903THY    CM159891   5.089   2.524   5.176  0.7666 -0.3837 -0.2708
18903THY    HM159892   5.012   2.582   5.123  1.1642 -2.0288 -1.1942
18903THY    HM259893   5.123   2.579   5.265  1.7403 -0.3466 -0.9122
18903THY    HM359894   5.044   2.426   5.195 -2.9387 -0.6792  1.2186
18903THY    CA659895   5.341   2.544   5.120  0.8117 -0.4886 -0.4646
18903THY    HA659896   5.353   2.570   5.225 -3.4782  0.2510 -0.6701
18904THY      O59897   1.232   4.209   6.520 -0.2782 -0.3314  0.3138
18904THY     HO59898   1.269   4.287   6.474  0.4880  0.8077  0.6390
18904THY    CA159899   1.104   4.251   6.539  0.1963 -0.3533 -0.6431
18904THY    CA259900   1.032   4.192   6.644  0.1647 -0.5496  1.0265
18904THY    CP159901   1.087   4.070   6.709 -0.2367 -0.3479  0.4859
18904THY    HP159902   1.145   4.003   6.645  1.3883  1.8963 -0.3657
18904THY    CP259903   0.979   3.980   6.764  0.1652 -0.2313 -0.0373
18904THY    HP259904   1.015   3.878   6.781  0.5251 -1.4042 -0.1266
18904THY    HP359905   0.896   3.982   6.692 -2.5635  2.6882  0.9253
18904THY    HP459906   0.941   4.012   6.862 -0.6914  0.0876 -1.8903
18904THY    CP359907   1.177   4.112   6.826 -0.0603 -0.5165  0.6818
18904THY    HP559908   1.133   4.188   6.892  1.0348  0.6105  0.3647
18904THY    HP659909   1.265   4.168   6.791 -0.7162 -2.3969  0.6256
18904THY    HP759910   1.219   4.025   6.877 -0.4517 -2.8510 -0.9460
18904THY    CA359911   0.909   4.253   6.686 -0.7136 -0.0767  0.2809
18904THY    HA359912   0.855   4.208   6.769  0.6471  0.0622 -1.2058
18904THY    CA459913   0.863   4.365   6.620 -1.0163  0.2024 -0.5320
18904THY    HA459914   0.766   4.410   6.638 -0.2114 -1.0839  1.9662
18904THY    CA559915   0.937   4.420   6.513  0.5205  0.0674 -0.2414
18904THY    CM159916   0.905   4.555   6.455  0.1047 -0.0132 -0.7062
18904THY    HM159917   0.810   4.543   6.401 -0.4896  0.0868  2.5239
18904THY    HM259918   0.969   4.604   6.381 -0.1856  0.3848  0.2987
18904THY    HM359919   0.884   4.628   6.534 -0.4450 -1.9392  1.3670
18904THY    CA659920   1.058   4.366   6.476  0.1508  0.3021 -0.2341
18904THY    HA659921   1.118   4.422   6.405  0.0015  0.3127 -0.0590
18905THY      O59922   1.598   4.857   3.317 -0.7372 -0.4678 -0.1790
18905THY     HO59923   1.602   4.885   3.225  0.6644 -0.2468  0.4049
18905THY    CA159924   1.726   4.880   3.369 -0.2344 -0.1311  0.1404
18905THY    CA259925   1.771   4.813   3.482  0.1167 -0.2135 -0.1357
18905THY    CP159926   1.669   4.713   3.546 -0.7120  0.3208  0.9188
18905THY    HP159927   1.597   4.663   3.480  0.0458  1.3524 -1.7053
18905THY    CP259928   1.586   4.791   3.648 -0.5513 -0.1134 -0.0467
18905THY    HP259929   1.558   4.892   3.618  1.4459  1.8854  1.1992
18905THY    HP359930   1.635   4.797   3.745 -1.9182  0.6726 -0.9750
18905THY    HP459931   1.498   4.726   3.652 -0.1973 -0.3651 -0.5495
18905THY    CP359932   1.750   4.593   3.613 -0.5515  0.7146  0.1109
18905THY    HP559933   1.680   4.515   3.646  0.8089  1.1875 -0.9525
18905THY    HP659934   1.811   4.630   3.696 -0.3380 -0.2144  1.9420
18905THY    HP759935   1.818   4.551   3.538 -2.3473 -0.4141 -0.9573
18905THY    CA359936   1.893   4.843   3.538 -0.0220 -0.2051 -0.6445
18905THY    HA359937   1.916   4.794   3.633 -1.9299 -0.2138 -1.6377
18905THY    CA459938   1.978   4.931   3.472  0.2279  0.5182 -0.5075
18905THY    HA459939   2.073   4.944   3.523 -1.1374  3.5201 -1.4787
18905THY    CA559940   1.934   4.999   3.353 -0.7091 -0.8975  0.1908
18905THY    CM159941   2.027   5.073   3.273  0.1346  0.0476 -0.2423
18905THY    HM159942   1.972   5.164   3.246  0.1151 -0.6171 -0.4421
18905THY    HM259943   2.062   5.019   3.184  1.4634 -1.5281  2.9719
18905THY    HM359944   2.112   5.104   3.333  2.0943 -2.2145 -0.9135
18905THY    CA659945   1.808   4.976   3.308  0.6139 -0.0996 -0.5494
18905THY    HA659946   1.775   5.028   3.218  2.4039 -1.1029 -1.0299
18906THY      O59947   6.821   7.644   5.680 -0.2241  0.0521  0.0094
18906THY     HO59948   6.788   7.732   5.704 -0.4548 -2.1986  0.6022
18906THY    CA159949   6.730   7.592   5.583 -0.0121 -0.6420  0.1081
18906THY    CA259950   6.650   7.480   5.612 -0.0590  0.1056  0.3207
18906THY    CP159951   6.669   7.390   5.730  0.1212 -0.0196 -0.3195
18906THY    HP159952   6.748   7.430   5.794  1.1264 -0.8958 -0.8467
18906THY    CP259953   6.716   7.254   5.677 -0.7829 -0.1103 -0.7991
18906THY    HP259954   6.658   7.219   5.591 -0.2506 -0.4586 -0.8266
18906THY    HP359955   6.705   7.184   5.761  1.0989 -0.1264 -1.1696
18906THY    HP459956   6.822   7.247   5.649 -0.7314  0.3736 -2.1518
18906THY    CP359957   6.544   7.363   5.818 -0.5940 -0.6916  0.2107
18906THY    HP559958   6.574   7.344   5.921 -0.1225 -1.0214 -0.8704
18906THY    HP659959   6.475   7.287   5.781 -1.4209 -3.2378  2.0531
18906THY    HP759960   6.484   7.455   5.827 -1.0106  0.3253 -0.1478
18906THY    CA359961   6.535   7.456   5.537  0.1800 -0.4199  0.3799
18906THY    HA359962   6.459   7.385   5.568 -1.4270 -2.3667  1.1407
18906THY    CA459963   6.518   7.534   5.421 -0.0155 -0.1070  0.1069
18906THY    HA459964   6.439   7.511   5.351 -1.5993  0.9487  2.0434
18906THY    CA559965   6.600   7.642   5.390  0.0968  0.2345 -0.7518
18906THY    CM159966   6.566   7.732   5.272 -0.0892 -0.3872  0.1130
18906THY    HM159967   6.485   7.684   5.216  1.5529 -1.1396 -1.9701
18906THY    HM259968   6.657   7.738   5.211  0.3633  0.1023 -1.2346
18906THY    HM359969   6.541   7.833   5.307  2.0998 -2.0379  1.3016
18906THY    CA659970   6.709   7.666   5.468  0.3244 -1.4349 -1.7344
18906THY    HA659971   6.772   7.755   5.465  0.9854  1.5982 -1.9790
18907THY      O59972   7.354   3.631   5.923  0.4468  0.2992  0.3748
18907THY     HO59973   7.437   3.639   5.873  0.4145 -0.2019 -1.6580
18907THY    CA159974   7.350   3.508   5.980  0.3312  0.1459  0.1920
18907THY    CA259975   7.228   3.453   6.033  0.1014 -0.1641 -0.1006
18907THY    CP159976   7.088   3.513   6.002  0.0016 -0.3781  0.4510
18907THY    HP159977   7.093   3.612   5.955  0.1903 -0.3998  0.4300
18907THY    CP259978   7.017   3.561   6.138  0.1331  0.5946  0.8203
18907THY    HP259979   7.077   3.634   6.195 -1.2770  2.8262  0.3381
18907THY    HP359980   6.994   3.483   6.211 -0.5704 -0.3991  0.0795
18907THY    HP459981   6.928   3.620   6.113  0.1169  1.2871  1.0967
18907THY    CP359982   6.994   3.426   5.916 -0.7812 -0.3572  0.0424
18907THY    HP559983   7.046   3.418   5.820  1.8297  0.9347  0.3360
18907THY    HP659984   6.896   3.473   5.905 -0.4004 -0.4874  0.8249
18907THY    HP759985   6.977   3.321   5.944  0.1401  1.0670  0.2452
18907THY    CA359986   7.236   3.325   6.090  0.4736 -0.2044  0.3149
18907THY    HA359987   7.146   3.269   6.116  0.9014 -0.4433 -0.4969
18907THY    CA459988   7.353   3.251   6.093 -0.1012  0.0091  0.4501
18907THY    HA459989   7.343   3.144   6.105 -0.3624 -1.0386  0.3508
18907THY    CA559990   7.467   3.315   6.053 -0.2226 -0.2331 -0.3689
18907THY    CM159991   7.591   3.239   6.076 -0.5961 -0.0443 -0.2571
18907THY    HM159992   7.588   3.132   6.050  0.4642  0.0013 -0.3102
18907THY    HM259993   7.630   3.244   6.179  1.5942 -0.6993 -2.0450
18907THY    HM359994   7.665   3.275   6.004 -0.5372  0.2819  0.2841
18907THY    CA659995   7.470   3.443   5.995  0.0281 -0.5384  0.6793
18907THY    HA659996   7.564   3.481   5.957  0.8393 -0.0383 -0.7562
18908THY      O59997   4.097   1.989   6.709 -0.3900  0.2124  0.1760
18908THY     HO59998   4.020   1.981   6.769 -0.6553 -0.1687 -0.1733
18908THY    CA159999   4.181   1.891   6.749  0.3928  0.3608  0.3957
18908THY    CA260000   4.313   1.889   6.701  0.0142 -0.4068 -0.8918
18908THY    CP160001   4.369   1.997   6.600 -0.2251 -1.0266  0.4006
18908THY    HP160002   4.294   2.062   6.552  0.5519 -0.8643  1.4425
18908THY    CP260003   4.443   1.921   6.485 -0.3710 -0.4210 -0.0426
18908THY    HP260004   4.540   1.874   6.506 -0.7577  2.5039  0.2633
18908THY    HP360005   4.449   2.006   6.417 -0.2693  0.0482  0.3285
18908THY    HP460006   4.373   1.854   6.434 -0.4573 -0.7826  0.3244
18908THY    CP360007   4.453   2.099   6.669 -0.9494  0.6223 -0.1644
18908THY    HP560008   4.557   2.065   6.683 -0.1637 -2.5085  0.5733
18908THY    HP660009   4.403   2.127   6.762 -0.0340  0.6333  1.5460
18908THY    HP760010   4.451   2.183   6.599  0.1581  0.7887  0.0258
18908THY    CA360011   4.399   1.792   6.758 -0.5703  0.1974  0.1391
18908THY    HA360012   4.501   1.778   6.723 -0.0081  1.9987 -0.5278
18908THY    CA460013   4.357   1.706   6.858 -0.0837  0.8550  0.3829
18908THY    HA460014   4.428   1.632   6.895 -0.7586 -1.2754 -1.4417
18908THY    CA560015   4.222   1.707   6.902  0.3140  1.2406 -0.1072
18908THY    CM160016   4.173   1.610   6.991  0.6256  0.0854 -0.5496
18908THY    HM160017   4.217   1.602   7.091  1.3319  0.0917  2.2405
18908THY    HM260018   4.178   1.511   6.944 -0.1521 -0.0296 -0.5445
18908THY    HM360019   4.067   1.627   7.014  0.2600 -2.1493  0.5337
18908THY    CA660020   4.138   1.798   6.839  0.6457  0.4105 -0.0982
18908THY    HA660021   4.032   1.794   6.863  0.2400 -1.3545 -0.5032
18909THY      O60022   0.655   3.979   5.200  0.1674  0.5139 -0.1452
18909THY     HO60023   0.579   3.923   5.179 -0.4403 -0.4567  1.0143
18909THY    CA160024   0.685   4.032   5.079 -0.4479  0.1892 -0.0289
18909THY    CA260025   0.708   4.166   5.056  0.1256 -0.6827 -0.7174
18909THY    CP160026   0.713   4.266   5.175 -0.7528 -0.0386 -0.6058
18909THY    HP160027   0.725   4.219   5.273  2.6752  0.1767  0.4673
18909THY    CP260028   0.580   4.338   5.166 -0.5229  0.1949 -0.0498
18909THY    HP260029   0.575   4.404   5.253 -1.7001 -0.1695  0.3641
18909THY    HP360030   0.495   4.270   5.178  0.1595 -1.1000 -1.2057
18909THY    HP460031   0.569   4.385   5.067 -0.6483  0.2547  0.0438
18909THY    CP360032   0.833   4.372   5.164  0.0728  0.6640 -0.2309
18909THY    HP560033   0.858   4.410   5.264  0.4475  0.5981 -0.2985
18909THY    HP660034   0.810   4.451   5.092  2.2372 -0.5233 -0.5995
18909THY    HP760035   0.918   4.318   5.120  1.0244  0.0334  1.7034
18909THY    CA360036   0.732   4.214   4.931 -0.5543  0.3396 -0.6273
18909THY    HA360037   0.754   4.319   4.916  0.7711 -0.3539 -0.9818
18909THY    CA460038   0.735   4.119   4.824 -0.3470 -0.2592  0.1142
18909THY    HA460039   0.760   4.157   4.725 -1.5022 -0.3771  0.6217
18909THY    CA560040   0.732   3.980   4.852  0.5714 -0.6232 -0.8422
18909THY    CM160041   0.768   3.875   4.760  0.0964  0.0752 -0.0485
18909THY    HM160042   0.856   3.820   4.795 -0.3623  0.3098 -0.6394
18909THY    HM260043   0.773   3.908   4.655  0.4342 -0.4217 -1.5766
18909THY    HM360044   0.686   3.803   4.767 -0.7386  0.4816  0.9303
18909THY    CA660045   0.694   3.936   4.979 -0.2327 -0.3220 -0.2611
18909THY    HA660046   0.698   3.830   4.999  0.8503 -0.9489 -0.3558
18910THY      O60047   8.424   2.643   3.673 -0.5371 -0.1411 -0.2239
18910THY     HO60048   8.431   2.736   3.645  0.0742  2.5103  0.6036
18910THY    CA160049   8.343   2.650   3.785 -0.7875 -0.7926 -0.4718
18910THY    CA260050   8.223   2.589   3.792 -0.2166 -0.5460  0.3171
18910THY    CP160051   8.163   2.512   3.680  0.2955  0.3328 -0.2988
18910THY    HP160052   8.215   2.548   3.590  0.8750  0.9434  0.4268
18910THY    CP260053   8.015   2.544   3.647  0.1040  0.0016 -0.5072
18910THY    HP260054   8.009   2.648   3.614 -1.1975 -1.4831 -1.0121
18910THY    HP360055   7.951   2.522   3.732  1.2765  0.9267 -0.4720
18910THY    HP460056   7.976   2.484   3.564  0.0818 -1.5523  1.5263
18910THY    CP360057   8.176   2.367   3.685 -0.6202 -0.0917  1.0368
18910THY    HP560058   8.122   2.315   3.765 -0.3980 -0.4924  0.1559
18910THY    HP660059   8.281   2.338   3.703 -0.7423  3.5646  2.3185
18910THY    HP760060   8.158   2.323   3.587 -0.0353 -0.1062  0.8185
18910THY    CA360061   8.141   2.605   3.907  0.0824 -0.2793 -1.2617
18910THY    HA360062   8.044   2.557   3.920  1.0889  1.6212 -2.9370
18910THY    CA460063   8.186   2.690   4.011  0.5333 -0.0099  1.1607
18910THY    HA460064   8.137   2.713   4.105  4.1300  2.0254  1.2583
18910THY    CA560065   8.309   2.752   4.001  0.1498 -0.5528  0.2865
18910THY    CM160066   8.359   2.824   4.121 -0.5014 -0.7843  0.1666
18910THY    HM160067   8.294   2.810   4.209  0.2128 -0.3889 -0.7529
18910THY    HM260068   8.368   2.932   4.106 -0.1552 -0.7914  0.1392
18910THY    HM360069   8.455   2.782   4.154 -0.4544  1.2254  1.6841
18910THY    CA660070   8.387   2.738   3.890  0.3826 -0.5217 -0.2618
18910THY    HA660071   8.486   2.781   3.886  0.4732  2.0449 -0.1056
18911THY      O60072   5.378   5.487   5.120 -1.1332 -0.1944  0.1273
18911THY     HO60073   5.470   5.472   5.092 -0.2290  2.1994  0.7628
18911THY    CA160074   5.353   5.607   5.063 -0.3264  0.2615 -0.5833
18911THY    CA260075   5.253   5.688   5.114 -0.4149 -0.8141 -0.0219
18911THY    CP160076   5.164   5.651   5.228  0.1320 -0.4549  0.2898
18911THY    HP160077   5.189   5.547   5.254  2.7316  0.8019  1.1321
18911THY    CP260078   5.014   5.654   5.209 -1.0723 -0.3667 -0.1418
18911THY    HP260079   4.958   5.634   5.301 -0.9031 -0.1386  0.4088
18911THY    HP360080   4.997   5.568   5.144 -1.7075  2.7955 -2.5923
18911THY    HP460081   4.989   5.755   5.175  1.4241  0.6308  0.8958
18911THY    CP360082   5.198   5.730   5.357 -0.3275  0.0641 -0.2026
18911THY    HP560083   5.173   5.836   5.358  1.1665 -0.0232  0.1748
18911THY    HP660084   5.306   5.721   5.375 -0.3485  0.2167 -0.1607
18911THY    HP760085   5.152   5.689   5.448  1.4430  1.2540  0.3346
18911THY    CA360086   5.247   5.819   5.073 -0.0082 -0.2062  0.8297
18911THY    HA360087   5.180   5.891   5.119  1.6679  3.2256  0.3939
18911THY    CA460088   5.315   5.858   4.954  0.2198 -0.1482  0.5496
18911THY    HA460089   5.295   5.957   4.913 -0.3402 -1.5272 -0.1272
18911THY    CA560090   5.413   5.778   4.895  0.1736 -0.5373 -0.2708
18911THY    CM160091   5.480   5.826   4.772 -0.6340  0.0976  0.0220
18911THY    HM160092   5.580   5.864   4.797 -0.1708  0.3824 -1.3422
18911THY    HM260093   5.436   5.909   4.716  0.3031  0.1331  0.5676
18911THY    HM360094   5.488   5.749   4.695 -4.5019 -1.2126  0.6876
18911THY    CA660095   5.434   5.651   4.954 -0.0390  0.2235  0.4265
18911THY    HA660096   5.503   5.582   4.906  0.1532 -0.3282  1.0002
18912THY      O60097   0.994   4.489   7.289 -0.1368 -0.2207  0.4323
18912THY     HO60098   0.951   4.574   7.273 -3.4477 -0.3805 -1.1056
18912THY    CA160099   0.925   4.395   7.219  0.9318  0.1399 -0.2834
18912THY    CA260100   0.970   4.263   7.198 -0.1738  0.0281  0.4354
18912THY    CP160101   1.103   4.216   7.269 -0.1503 -0.5602 -0.9078
18912THY    HP160102   1.114   4.275   7.361  0.2657 -0.7522 -0.6824
18912THY    CP260103   1.232   4.247   7.189 -0.1450  0.3862  0.0764
18912THY    HP260104   1.317   4.228   7.255  1.3146 -1.9673 -2.1090
18912THY    HP360105   1.236   4.355   7.171 -1.5028 -1.3488 -0.1235
18912THY    HP460106   1.247   4.182   7.103  2.1971 -0.2810  1.3753
18912THY    CP360107   1.103   4.072   7.316 -0.3110 -0.1987 -0.2243
18912THY    HP560108   1.140   4.001   7.241  1.0975  1.1261 -0.9667
18912THY    HP660109   1.001   4.044   7.342 -0.8141 -2.6057 -0.8285
18912THY    HP760110   1.172   4.052   7.400 -2.2218  1.1566 -1.4829
18912THY    CA360111   0.902   4.172   7.115  0.2342  0.3923 -0.7295
18912THY    HA360112   0.953   4.079   7.092  0.4262  2.4032 -1.1763
18912THY    CA460113   0.786   4.215   7.052  0.4845 -0.8438  0.4800
18912THY    HA460114   0.734   4.149   6.984 -0.5686  0.3008  0.0877
18912THY    CA560115   0.732   4.342   7.078 -0.2980  0.1943  0.1605
18912THY    CM160116   0.617   4.392   6.992  0.1766 -0.5291 -0.4754
18912THY    HM160117   0.565   4.299   6.966  1.6397  0.1371 -1.5286
18912THY    HM260118   0.651   4.456   6.910 -1.3315 -1.0184 -0.2502
18912THY    HM360119   0.555   4.454   7.057  0.3959  0.7878 -1.5850
18912THY    CA660120   0.804   4.433   7.161  0.2371 -0.5537 -0.3948
18912THY    HA660121   0.759   4.531   7.175 -1.0224 -0.8097 -0.9147
18913THY      O60122   4.988   3.528   4.971  0.4478 -0.3038  0.4159
18913THY     HO60123   5.044   3.466   5.022  0.2679  1.7597  1.8477
18913THY    CA160124   4.862   3.512   5.018 -0.0786  0.0994  0.1200
18913THY    CA260125   4.749   3.575   4.958  0.5792 -0.0301 -0.1825
18913THY    CP160126   4.742   3.649   4.826  0.1030 -0.1841 -0.3604
18913THY    HP160127   4.842   3.652   4.780  0.2203  0.0623  2.0146
18913THY    CP260128   4.681   3.798   4.839 -0.6504 -0.3696  0.2578
18913THY    HP260129   4.599   3.808   4.911 -1.1378 -0.8744 -0.0238
18913THY    HP360130   4.647   3.825   4.739 -1.8645 -0.3472 -1.0370
18913THY    HP460131   4.752   3.876   4.866  0.8316 -0.7754 -0.9010
18913THY    CP360132   4.664   3.573   4.727  0.0744  0.1728 -1.2325
18913THY    HP560133   4.567   3.535   4.758 -0.1223  0.3885 -0.5656
18913THY    HP660134   4.716   3.481   4.696 -1.0492 -1.0550 -1.4878
18913THY    HP760135   4.655   3.621   4.629 -1.5839  1.0300  0.2693
18913THY    CA360136   4.624   3.559   5.025 -0.1671 -0.4824 -0.3702
18913THY    HA360137   4.538   3.603   4.975 -1.4804 -1.6969 -3.9465
18913THY    CA460138   4.617   3.483   5.140 -0.2090  0.9104 -0.0087
18913THY    HA460139   4.524   3.463   5.191 -1.0974  0.6917  3.0994
18913THY    CA560140   4.730   3.430   5.201  0.0125 -0.4608 -0.2873
18913THY    CM160141   4.714   3.347   5.339  0.3799 -0.1757  0.3905
18913THY    HM160142   4.670   3.404   5.421 -0.6926  0.6935 -1.5717
18913THY    HM260143   4.812   3.318   5.378  1.0745 -2.2729 -0.3178
18913THY    HM360144   4.649   3.260   5.325 -1.0436  0.8857  1.2511
18913THY    CA660145   4.856   3.446   5.143 -0.7222 -0.4562  1.0363
18913THY    HA660146   4.942   3.403   5.192 -1.4460  0.1747  0.2774
18914THY      O60147   1.646   0.553   6.146  0.5354 -0.1798 -0.4917
18914THY     HO60148   1.581   0.497   6.192  0.2663  0.2149  0.1389
18914THY    CA160149   1.569   0.652   6.097  0.3009 -0.3936  0.0786
18914THY    CA260150   1.630   0.755   6.021  0.0559  0.8151  0.4737
18914THY    CP160151   1.785   0.762   6.000  0.2627  0.3756  0.3230
18914THY    HP160152   1.830   0.694   6.074 -0.0633  1.8169  1.6228
18914THY    CP260153   1.841   0.902   6.004 -0.2327 -0.8204  0.2949
18914THY    HP260154   1.804   0.953   6.094  1.4399  0.0121  0.1037
18914THY    HP360155   1.826   0.955   5.910  0.5126  0.0972  2.2468
18914THY    HP460156   1.948   0.900   6.029 -0.8667  2.4192 -1.0969
18914THY    CP360157   1.819   0.692   5.861 -0.4850  0.2036 -0.7405
18914THY    HP560158   1.773   0.592   5.872 -0.6575  0.0403 -0.6789
18914THY    HP660159   1.924   0.687   5.830 -0.2851  0.8964 -1.0277
18914THY    HP760160   1.763   0.738   5.779 -2.9222  0.8942 -2.2758
18914THY    CA360161   1.538   0.848   5.964  1.0393 -0.0676 -0.4284
18914THY    HA360162   1.567   0.919   5.887 -0.6779 -0.3646  0.0069
18914THY    CA460163   1.393   0.843   5.985 -0.6622 -0.4737 -0.8110
18914THY    HA460164   1.323   0.915   5.946  0.6447  0.3761  1.0027
18914THY    CA560165   1.345   0.744   6.064 -0.2146 -0.3284  0.4103
18914THY    CM160166   1.200   0.734   6.081  0.1847 -0.2104 -0.9263
18914THY    HM160167   1.166   0.698   6.179 -1.7265 -0.1526  0.8120
18914THY    HM260168   1.150   0.668   6.009 -1.1569 -0.9414  0.8068
18914THY    HM360169   1.162   0.836   6.069  1.5913 -0.9226 -0.4663
18914THY    CA660170   1.430   0.643   6.121  0.4333 -0.3392  0.4367
18914THY    HA660171   1.388   0.566   6.184  1.2568  0.2461  0.4638
18915THY      O60172   8.361   4.796   4.256 -0.6844  0.2124  0.3045
18915THY     HO60173   8.308   4.789   4.175 -1.3418  0.6818 -0.1975
18915THY    CA160174   8.319   4.705   4.344 -0.6444 -0.0771 -0.4705
18915THY    CA260175   8.399   4.658   4.452 -0.1067  0.8629 -0.0822
18915THY    CP160176   8.545   4.695   4.463  0.6670  0.0146  0.5711
18915THY    HP160177   8.560   4.782   4.397  1.4939 -2.0007 -1.0076
18915THY    CP260178   8.645   4.586   4.416  0.5513 -0.5544  0.6439
18915THY    HP260179   8.744   4.629   4.400  0.5608 -2.3827  0.0476
18915THY    HP360180   8.597   4.548   4.325  0.6830  0.2074 -1.5091
18915THY    HP460181   8.648   4.496   4.479 -1.5259 -1.2210  0.0298
18915THY    CP360182   8.587   4.741   4.612  0.0181  0.5160  0.3708
18915THY    HP560183   8.502   4.795   4.655 -1.7060 -0.0462 -1.7425
18915THY    HP660184   8.680   4.799   4.607  1.7553 -0.5758 -2.3008
18915THY    HP760185   8.605   4.652   4.673 -1.7078 -1.9081 -1.7751
18915THY    CA360186   8.343   4.572   4.548 -0.1900  0.6373 -0.3664
18915THY    HA360187   8.402   4.534   4.630 -1.7973  1.8221 -0.4227
18915THY    CA460188   8.213   4.529   4.530  0.3087  0.4650  0.6180
18915THY    HA460189   8.178   4.447   4.592  1.2266 -1.2917 -1.1610
18915THY    CA560190   8.133   4.572   4.424 -0.8073 -0.0970  0.2385
18915THY    CM160191   7.984   4.528   4.406 -1.0954  0.8684 -0.5073
18915THY    HM160192   7.937   4.578   4.320 -0.8485  1.1617  0.2343
18915THY    HM260193   7.925   4.551   4.495 -1.3727  1.0963 -1.9981
18915THY    HM360194   7.974   4.420   4.388 -1.3205 -0.0239 -0.3444
18915THY    CA660195   8.184   4.659   4.331  0.4471  0.3467  0.4837
18915THY    HA660196   8.120   4.703   4.255  0.5217 -0.0674 -0.1114
18916THY      O60197   2.609   1.465   5.454  0.2159  0.5134  0.1356
18916THY     HO60198   2.538   1.506   5.507 -0.8925  1.0920 -2.3582
18916THY    CA160199   2.731   1.491   5.506 -0.5389 -0.1828  1.0003
18916THY    CA260200   2.802   1.378   5.555  0.0239 -0.6408  0.4731
18916THY    CP160201   2.733   1.234   5.567 -0.3163  0.6416  0.1302
18916THY    HP160202   2.629   1.248   5.537 -0.7151  1.5473 -0.8236
18916THY    CP260203   2.734   1.168   5.698 -0.7180 -0.0357  0.0450
18916THY    HP260204   2.654   1.216   5.756  0.6319 -0.3277  2.8801
18916THY    HP360205   2.825   1.185   5.758 -0.8422  0.1561  0.0299
18916THY    HP460206   2.724   1.059   5.697  1.0318  0.3829 -0.1563
18916THY    CP360207   2.798   1.141   5.462 -0.3577  0.6076 -0.1693
18916THY    HP560208   2.748   1.045   5.445  0.2708  2.7470 -0.9366
18916THY    HP660209   2.905   1.133   5.483 -0.0920 -0.1878  1.0466
18916THY    HP760210   2.787   1.187   5.363 -0.9741 -0.0116 -1.5830
18916THY    CA360211   2.934   1.401   5.595 -0.8567  0.9207 -0.6906
18916THY    HA360212   2.994   1.312   5.611 -0.1328  0.7255 -0.2442
18916THY    CA460213   3.001   1.522   5.584  0.3155 -0.2084 -0.0357
18916THY    HA460214   3.109   1.530   5.592  0.3861  1.0760 -1.6531
18916THY    CA560215   2.918   1.636   5.546 -0.1720  0.3243  0.3354
18916THY    CM160216   2.974   1.772   5.564  0.2864  0.7711  0.1304
18916THY    HM160217   3.078   1.767   5.530  0.6768  1.8082  0.8244
18916THY    HM260218   2.981   1.801   5.670  0.2649  0.3855  1.6052
18916THY    HM360219   2.913   1.846   5.512 -1.3470  1.0804 -0.9384
18916THY    CA660220   2.787   1.610   5.511  0.4928  0.2301 -0.0256
18916THY    HA660221   2.723   1.694   5.485 -2.9901  0.9416 -2.2197
18917THY      O60222   7.284   8.485   6.703 -0.1374 -0.5831  0.0225
18917THY     HO60223   7.249   8.394   6.701  0.1212 -3.5641 -0.1080
18917THY    CA160224   7.183   8.569   6.734  0.5490  0.0891 -0.8334
18917THY    CA260225   7.179   8.702   6.678  0.2503 -0.3504 -0.2606
18917THY    CP160226   7.289   8.741   6.582 -0.2924  0.5635 -0.0682
18917THY    HP160227   7.329   8.648   6.540  2.2833  1.6269  0.4894
18917THY    CP260228   7.395   8.816   6.663  0.2653 -0.1890  0.3418
18917THY    HP260229   7.408   8.759   6.755  2.4249 -0.0615  0.9284
18917THY    HP360230   7.358   8.918   6.682 -1.5791  1.3325 -0.5619
18917THY    HP460231   7.498   8.815   6.623  0.5659  0.5420  1.0863
18917THY    CP360232   7.234   8.822   6.452  0.1552 -0.0228 -0.2510
18917THY    HP560233   7.316   8.845   6.382 -0.4210 -0.7782 -0.4858
18917THY    HP660234   7.202   8.924   6.478  0.5041 -0.9154  0.0909
18917THY    HP760235   7.153   8.774   6.398 -0.1240 -0.4875  0.7097
18917THY    CA360236   7.082   8.788   6.722 -0.0715  0.1196 -0.1017
18917THY    HA360237   7.084   8.885   6.672  0.0193  0.1406 -0.0923
18917THY    CA460238   6.993   8.754   6.829  0.1445 -0.0950  0.1565
18917THY    HA460239   6.911   8.821   6.854 -0.2965 -0.2141 -0.3393
18917THY    CA560240   7.009   8.628   6.891  1.0189 -0.1026 -0.0114
18917THY    CM160241   6.918   8.579   7.005 -0.6812 -0.0352  0.5428
18917THY    HM160242   6.962   8.497   7.064 -1.7454  0.5716  0.3995
18917THY    HM260243   6.830   8.545   6.950 -0.8883 -0.0190  1.0416
18917THY    HM360244   6.895   8.655   7.081 -0.9637 -0.9081  1.3479
18917THY    CA660245   7.099   8.534   6.841 -0.2835  0.3897  0.2263
18917THY    HA660246   7.102   8.434   6.883 -2.5369  0.5635  0.1879
18918THY      O60247   5.037   1.667   3.318  0.1348 -0.1182 -0.1378
18918THY     HO60248   5.114   1.725   3.309 -0.0392 -0.2854  0.0698
18918THY    CA160249   4.988   1.700   3.444  0.0067  0.4061 -0.9751
18918THY    CA260250   4.857   1.677   3.473  0.9776 -0.4185 -0.3053
18918THY    CP160251   4.761   1.617   3.380  0.1326 -0.1246  0.1544
18918THY    HP160252   4.817   1.564   3.302  2.2044  0.1220  1.8609
18918THY    CP260253   4.685   1.732   3.301 -0.5630 -0.0422  0.0790
18918THY    HP260254   4.612   1.680   3.237  1.4296 -1.3489 -1.2485
18918THY    HP360255   4.756   1.801   3.256  1.1250  1.8092 -0.3627
18918THY    HP460256   4.629   1.795   3.372 -0.8860 -2.1011  2.2388
18918THY    CP360257   4.670   1.513   3.443 -0.4065 -0.4280  0.0222
18918THY    HP560258   4.599   1.556   3.515  0.7225  3.0189 -3.2651
18918THY    HP660259   4.731   1.455   3.514 -0.3340  0.4336  1.0970
18918THY    HP760260   4.616   1.450   3.372 -1.1964  1.7175 -1.8492
18918THY    CA360261   4.814   1.714   3.601 -0.7328  0.1578  0.8374
18918THY    HA360262   4.717   1.692   3.646  0.1914  1.1088 -1.6566
18918THY    CA460263   4.910   1.771   3.686  0.0477  0.4138  0.2993
18918THY    HA460264   4.882   1.800   3.786  4.1266  1.5898  0.7778
18918THY    CA560265   5.048   1.785   3.653  0.7999  0.4877 -0.0766
18918THY    CM160266   5.154   1.838   3.755 -0.2430  0.0543 -0.1163
18918THY    HM160267   5.185   1.764   3.830 -1.6058 -0.2990 -1.0970
18918THY    HM260268   5.111   1.921   3.812 -0.1236  0.4340 -0.3120
18918THY    HM360269   5.242   1.884   3.709  1.6565  1.4624 -2.1177
18918THY    CA660270   5.087   1.753   3.527 -0.5838  0.0775  0.9649
18918THY    HA660271   5.191   1.757   3.495 -0.6829 -0.6516 -1.0225
18919THY      O60272   8.531   5.527   2.369 -0.3090 -0.1028 -0.1079
18919THY     HO60273   8.599   5.475   2.324  0.4097 -2.6403  2.7404
18919THY    CA160274   8.587   5.647   2.359  0.0760 -0.2359 -0.5150
18919THY    CA260275   8.501   5.761   2.364 -0.1914 -0.7026 -0.2315
18919THY    CP160276   8.351   5.744   2.397 -0.1020 -0.0988 -0.9877
18919THY    HP160277   8.326   5.667   2.471 -1.5955 -0.1557 -0.6045
18919THY    CP260278   8.270   5.721   2.274  0.0105 -0.0255 -0.1336
18919THY    HP260279   8.163   5.702   2.291  0.2968  1.2444 -0.7160
18919THY    HP360280   8.300   5.637   2.211 -0.5939 -1.1223  0.4489
18919THY    HP460281   8.272   5.812   2.212 -0.9728 -0.5652 -0.4674
18919THY    CP360282   8.286   5.873   2.466 -0.6292 -0.6797  0.2053
18919THY    HP560283   8.187   5.853   2.509 -0.6227 -2.1498 -4.0091
18919THY    HP660284   8.275   5.956   2.395 -4.3893  0.1366  0.5658
18919THY    HP760285   8.355   5.919   2.539  0.4398 -0.6321 -1.3994
18919THY    CA360286   8.552   5.890   2.323  0.9315  0.0667  0.6990
18919THY    HA360287   8.475   5.965   2.303 -1.4154  1.2540 -1.2448
18919THY    CA460288   8.683   5.897   2.300 -0.1011  0.5692 -0.9626
18919THY    HA460289   8.733   5.993   2.295 -1.1408  1.0986 -0.3867
18919THY    CA560290   8.773   5.791   2.316 -0.0614  0.4742  0.2151
18919THY    CM160291   8.915   5.794   2.288  0.2823  0.1174 -0.1499
18919THY    HM160292   8.934   5.901   2.274  0.2204  2.7192  0.2577
18919THY    HM260293   8.949   5.738   2.200 -0.4952 -1.1179  1.2483
18919THY    HM360294   8.968   5.746   2.372  1.7814 -1.1750 -0.8587
18919THY    CA660295   8.723   5.661   2.334  0.0804 -0.4302 -0.2905
18919THY    HA660296   8.784   5.571   2.338 -1.8746 -0.0196 -1.6740
18920THY      O60297   0.877   1.318   2.450 -0.3737  0.3674 -0.0523
18920THY     HO60298   0.804   1.288   2.507 -0.0146  0.8302 -0.0525
18920THY    CA160299   0.984   1.303   2.537  0.0298 -0.0718  0.8276
18920THY    CA260300   1.116   1.268   2.490  0.5568 -0.4028 -0.8260
18920THY    CP160301   1.146   1.287   2.335  0.0444  0.3058  0.3059
18920THY    HP160302   1.096   1.380   2.303 -1.2859  1.1418 -0.0952
18920THY    CP260303   1.084   1.172   2.264 -0.4422  0.3943  0.6188
18920THY    HP260304   1.123   1.078   2.305 -1.7295  1.3255  0.4604
18920THY    HP360305   1.110   1.189   2.159 -0.6333  0.5082  1.6622
18920THY    HP460306   0.974   1.172   2.268 -0.5511 -0.3832 -2.3921
18920THY    CP360307   1.295   1.303   2.292  0.6123  0.0507 -0.1995
18920THY    HP560308   1.311   1.334   2.188  0.9396  0.0329 -0.4246
18920THY    HP660309   1.336   1.202   2.295 -1.5458 -1.5313 -1.1895
18920THY    HP760310   1.354   1.373   2.353 -1.2591 -2.1164  3.5645
18920THY    CA360311   1.216   1.240   2.586 -0.6051  0.1590  0.1645
18920THY    HA360312   1.319   1.220   2.557  0.1985  2.2479  0.9655
18920THY    CA460313   1.183   1.238   2.722 -0.0465 -0.4786 -0.7562
18920THY    HA460314   1.271   1.213   2.780  0.1947 -0.5876 -0.1931
18920THY    CA560315   1.053   1.259   2.763  0.2280  0.0141  0.0700
18920THY    CM160316   1.014   1.228   2.903 -0.3206  0.4416 -0.5157
18920THY    HM160317   1.072   1.295   2.969 -0.5524 -0.8783  1.0695
18920THY    HM260318   1.064   1.132   2.919  2.9433  0.0471  0.9465
18920THY    HM360319   0.908   1.229   2.927 -0.8198 -1.4849  1.2341
18920THY    CA660320   0.951   1.295   2.674 -0.4709  0.1171  0.6868
18920THY    HA660321   0.848   1.303   2.707 -1.3298 -2.6077  2.2822
18921THY      O60322   6.076   0.313   2.854  0.1066 -0.1031 -0.0023
18921THY     HO60323   6.068   0.216   2.848 -1.1455 -1.0075  0.1306
18921THY    CA160324   6.043   0.361   2.733 -0.4301 -0.3476  0.4885
18921THY    CA260325   6.030   0.500   2.711  0.4438 -0.1316 -0.1368
18921THY    CP160326   6.041   0.597   2.827  0.1706  0.1330  0.1380
18921THY    HP160327   6.135   0.581   2.880  0.9125 -0.4533  2.1833
18921THY    CP260328   5.929   0.589   2.932 -0.1173 -0.6206 -0.5627
18921THY    HP260329   5.829   0.616   2.897  0.1954  1.0101  3.2873
18921THY    HP360330   5.946   0.658   3.015  1.9776 -0.6878 -0.9129
18921THY    HP460331   5.906   0.492   2.978  0.9441 -0.5237 -0.7839
18921THY    CP360332   6.056   0.749   2.801  0.3501  0.5128  0.0780
18921THY    HP560333   5.957   0.790   2.779  1.0447  3.2288  3.7303
18921THY    HP660334   6.124   0.772   2.718  0.7197  0.6864 -0.3778
18921THY    HP760335   6.090   0.800   2.892  0.7402 -0.7321  2.1640
18921THY    CA360336   5.986   0.541   2.582  0.4892 -0.2599  0.6241
18921THY    HA360337   5.971   0.645   2.554 -1.3244 -0.8008  0.2444
18921THY    CA460338   5.956   0.444   2.477 -0.4100 -0.3862 -0.4358
18921THY    HA460339   5.913   0.481   2.384 -1.9822  0.3611 -0.3246
18921THY    CA560340   5.979   0.303   2.506 -0.6231  0.0357  0.1492
18921THY    CM160341   5.953   0.201   2.396  0.1109 -0.0143 -0.8792
18921THY    HM160342   5.913   0.109   2.442  3.1383  1.9283 -1.3655
18921THY    HM260343   6.047   0.180   2.343  0.9309  1.5011 -1.1551
18921THY    HM360344   5.877   0.226   2.320  1.3488 -1.0185 -0.0419
18921THY    CA660345   6.023   0.265   2.633 -0.4505  0.6512  0.0709
18921THY    HA660346   6.037   0.160   2.654 -1.0651  0.9964  0.0537
18922THY      O60347   1.390   1.853   4.914 -0.4633 -0.0771 -0.1557
18922THY     HO60348   1.417   1.765   4.945 -0.0888 -0.7591 -0.2887
18922THY    CA160349   1.507   1.927   4.925 -0.4167 -0.9148 -0.2650
18922THY    CA260350   1.517   2.063   4.895 -0.0779 -0.1670  0.1709
18922THY    CP160351   1.400   2.144   4.846  0.0504  1.0631  0.4707
18922THY    HP160352   1.309   2.100   4.889  1.2150  1.7111 -1.3759
18922THY    CP260353   1.383   2.126   4.688 -0.2791 -0.2145 -0.1085
18922THY    HP260354   1.471   2.172   4.643  0.5758  1.7025  0.2205
18922THY    HP360355   1.292   2.169   4.643  1.1194 -1.1880  2.0146
18922THY    HP460356   1.397   2.020   4.666  2.5745 -3.8917  0.8199
18922THY    CP360357   1.396   2.296   4.894  0.0283  0.8135 -0.3091
18922THY    HP560358   1.312   2.347   4.845 -0.6587  3.0584  0.8386
18922THY    HP660359   1.484   2.354   4.867  2.6309 -0.7047 -4.5254
18922THY    HP760360   1.379   2.302   5.002 -1.8019  0.4995  1.2558
18922THY    CA360361   1.645   2.129   4.911  0.5902 -0.4276  0.1913
18922THY    HA360362   1.656   2.233   4.882 -0.8986  0.4256  0.6101
18922THY    CA460363   1.757   2.063   4.942  0.0052 -1.0999  0.5939
18922THY    HA460364   1.856   2.106   4.939  0.9592  2.0965 -1.0524
18922THY    CA560365   1.746   1.922   4.970  0.0015 -0.1284 -0.0342
18922THY    CM160366   1.872   1.840   4.983 -0.0550 -0.0637  0.0558
18922THY    HM160367   1.966   1.896   4.990  0.7682  1.8752 -1.4408
18922THY    HM260368   1.884   1.753   4.918  2.5471  1.6867 -1.0223
18922THY    HM360369   1.877   1.783   5.077  0.7524  0.4236  0.9190
18922THY    CA660370   1.626   1.856   4.956  0.0253  0.3296  0.5283
18922THY    HA660371   1.618   1.750   4.976 -1.1562  1.6840  0.8314
18923THY      O60372   4.700   5.843   4.055 -0.0253 -0.2111  0.5511
18923THY     HO60373   4.757   5.873   3.981  1.6253  1.2155  1.0732
18923THY    CA160374   4.629   5.735   4.020 -0.3782  0.6379  0.5089
18923THY    CA260375   4.569   5.657   4.118 -0.2841 -0.0139  0.2152
18923THY    CP160376   4.591   5.693   4.267  0.0302 -1.1780 -0.1039
18923THY    HP160377   4.586   5.802   4.276 -1.1299 -1.0710 -0.1586
18923THY    CP260378   4.726   5.646   4.333  0.8662  0.2137 -0.2129
18923THY    HP260379   4.719   5.537   4.329  0.9295 -3.4268 -0.2091
18923THY    HP360380   4.733   5.674   4.438  0.6927  0.2063 -0.1350
18923THY    HP460381   4.819   5.666   4.279  0.1999 -0.6239  0.7491
18923THY    CP360382   4.481   5.650   4.370  0.3657  0.1697  0.3109
18923THY    HP560383   4.393   5.667   4.308  2.0386 -1.7299  2.7021
18923THY    HP660384   4.466   5.721   4.452 -0.5293 -1.2489  1.8324
18923THY    HP760385   4.478   5.544   4.398  0.4099  1.1021  0.5401
18923THY    CA360386   4.494   5.548   4.083  0.2376  0.3515  0.5836
18923THY    HA360387   4.447   5.482   4.155 -0.1781 -1.2930 -1.0348
18923THY    CA460388   4.473   5.522   3.949 -0.1507 -0.1439  0.1505
18923THY    HA460389   4.414   5.431   3.938  0.0941  4.3416 -0.8135
18923THY    CA560390   4.532   5.595   3.850  0.2208  0.6105 -0.4171
18923THY    CM160391   4.515   5.549   3.697  0.1469 -0.4761 -0.4198
18923THY    HM160392   4.416   5.502   3.684  0.2002  0.9630 -0.9968
18923THY    HM260393   4.595   5.485   3.660 -0.3550 -0.6815 -0.9424
18923THY    HM360394   4.496   5.632   3.628 -0.8328  0.6009  0.2869
18923THY    CA660395   4.611   5.701   3.887  0.3317  0.0039 -0.7818
18923THY    HA660396   4.671   5.754   3.814  1.0735  1.0444 -0.1443
18924THY      O60397   1.987   5.143   7.373  0.1998  0.0289  0.8519
18924THY     HO60398   1.974   5.222   7.428 -0.7900  2.3651 -0.8321
18924THY    CA160399   1.860   5.126   7.319  0.3802  0.3303  0.7292
18924THY    CA260400   1.831   5.031   7.220  0.5186 -0.6583  0.2005
18924THY    CP160401   1.933   4.932   7.177 -0.2135  0.1119  0.6675
18924THY    HP160402   2.003   4.924   7.261  0.2198 -0.1135  1.9268
18924THY    CP260403   2.014   4.985   7.059 -0.6709  0.0047 -0.1378
18924THY    HP260404   2.119   4.953   7.066 -1.2729  2.1276 -1.8750
18924THY    HP360405   2.020   5.094   7.071 -0.5668  4.2252 -0.4593
18924THY    HP460406   1.967   4.961   6.963 -1.0934  0.2897 -0.4754
18924THY    CP360407   1.897   4.785   7.155  0.2578 -0.3589 -0.1778
18924THY    HP560408   1.842   4.744   7.240  1.1298  0.2773 -0.0456
18924THY    HP660409   1.985   4.726   7.128  0.9921  0.8738  0.3404
18924THY    HP760410   1.829   4.771   7.070 -1.0189  0.3633  1.3172
18924THY    CA360411   1.695   5.017   7.172 -0.7362  0.1209  0.4699
18924THY    HA360412   1.666   4.943   7.098  1.3130  0.4299 -0.7338
18924THY    CA460413   1.606   5.111   7.205  0.6742 -0.5986  0.5716
18924THY    HA460414   1.505   5.112   7.165 -0.4123  1.9033 -0.6047
18924THY    CA560415   1.637   5.212   7.297 -0.1982  0.4011  0.5848
18924THY    CM160416   1.536   5.314   7.338 -0.4510  0.5164  0.6247
18924THY    HM160417   1.579   5.414   7.323 -1.8729 -0.3792  1.1424
18924THY    HM260418   1.510   5.303   7.443 -0.8033  0.3208 -0.4835
18924THY    HM360419   1.439   5.295   7.290  0.6204 -0.9115 -1.6194
18924THY    CA660420   1.766   5.218   7.350 -0.0121 -0.2440  0.0294
18924THY    HA660421   1.789   5.295   7.423  1.3911  1.1682 -1.6320
18925THY      O60422   3.057   5.385   3.632  0.2050 -0.1078  0.9564
18925THY     HO60423   3.079   5.290   3.636  1.6843  0.7365  1.2997
18925THY    CA160424   3.084   5.427   3.510  0.2969  0.7749  0.9238
18925THY    CA260425   3.016   5.540   3.454 -0.0338  0.1389  0.1297
18925THY    CP160426   2.913   5.610   3.535  0.4434  0.0314  0.3377
18925THY    HP160427   2.867   5.544   3.609  0.7265 -0.1871 -0.1065
18925THY    CP260428   2.790   5.656   3.455 -1.1842 -0.1165 -0.5702
18925THY    HP260429   2.706   5.675   3.523 -0.8954 -0.0783  0.6261
18925THY    HP360430   2.764   5.583   3.378 -2.1143 -1.5002  1.1536
18925THY    HP460431   2.792   5.751   3.401  0.0568  0.8391 -0.0119
18925THY    CP360432   2.973   5.718   3.617 -0.0040 -0.6248 -0.6310
18925THY    HP560433   3.010   5.786   3.539  0.4471 -0.0037 -0.1510
18925THY    HP660434   3.056   5.675   3.673  1.3407 -1.2258  1.0768
18925THY    HP760435   2.901   5.755   3.691  0.6507  1.0491 -2.5169
18925THY    CA360436   3.041   5.572   3.317  0.1261  0.8094 -0.1889
18925THY    HA360437   2.976   5.640   3.264  0.0055 -0.8948 -1.5499
18925THY    CA460438   3.132   5.494   3.242 -0.3617 -0.0058  0.0436
18925THY    HA460439   3.161   5.523   3.141  0.5674  0.3536  0.4384
18925THY    CA560440   3.202   5.382   3.301 -0.3006  0.2505  0.6214
18925THY    CM160441   3.309   5.303   3.227  1.2441 -0.0289 -0.6513
18925THY    HM160442   3.320   5.330   3.121  3.6640 -0.0770 -1.5320
18925THY    HM260443   3.298   5.194   3.237  2.0694 -3.0366 -1.1205
18925THY    HM360444   3.402   5.339   3.271  0.8750 -0.2102  0.5535
18925THY    CA660445   3.177   5.349   3.433 -0.1903 -0.7998 -0.1184
18925THY    HA660446   3.226   5.266   3.483 -2.0953 -0.6498 -1.2234
18926THY      O60447   2.430   2.976   4.523  0.3119  0.1026  0.0503
18926THY     HO60448   2.493   3.046   4.549  0.6841  1.7904 -0.8651
18926THY    CA160449   2.308   3.026   4.541  0.1343 -0.1362 -0.2453
18926THY    CA260450   2.189   2.952   4.556  0.3426  0.3100  0.3601
18926THY    CP160451   2.201   2.799   4.534  1.1952 -0.2919 -0.0468
18926THY    HP160452   2.301   2.755   4.525  0.6600  0.6021 -1.5104
18926THY    CP260453   2.131   2.778   4.394  0.0376  0.4286  0.1262
18926THY    HP260454   2.176   2.832   4.310 -1.3171  1.0153  2.3299
18926THY    HP360455   2.034   2.829   4.386  0.9795 -2.3296  1.7490
18926THY    HP460456   2.111   2.676   4.361 -0.0357 -1.3934  0.6953
18926THY    CP360457   2.131   2.718   4.644 -0.2667 -1.3308  0.3553
18926THY    HP560458   2.025   2.742   4.647 -0.4763  2.4098 -0.3868
18926THY    HP660459   2.169   2.731   4.747 -1.8680 -0.8025  1.0466
18926THY    HP760460   2.147   2.615   4.609 -0.7916 -0.2135 -0.1220
18926THY    CA360461   2.062   3.013   4.586  0.3803  0.0036 -0.2778
18926THY    HA360462   1.971   2.956   4.601 -0.6097  2.3517  1.7370
18926THY    CA460463   2.064   3.150   4.610  0.2672 -0.6558 -0.1522
18926THY    HA460464   1.977   3.204   4.645  0.1706 -1.1151 -0.0067
18926THY    CA560465   2.180   3.219   4.599  0.0495 -0.1672  0.9644
18926THY    CM160466   2.189   3.361   4.651  0.5895 -0.1232  0.5515
18926THY    HM160467   2.108   3.427   4.617 -0.6961  1.9443  0.1303
18926THY    HM260468   2.286   3.406   4.627  0.8772  0.4427  0.2457
18926THY    HM360469   2.194   3.364   4.760  0.2041 -0.0642 -0.7304
18926THY    CA660470   2.303   3.162   4.566  0.4601 -0.4741 -0.1643
18926THY    HA660471   2.394   3.223   4.563 -1.5414 -1.3088  3.0156
18927THY      O60472   1.318   4.358   3.319  0.4611  0.2714 -0.7103
18927THY     HO60473   1.320   4.452   3.341  0.1591 -1.8174 -0.1641
18927THY    CA160474   1.331   4.284   3.425 -0.0236  0.4629 -0.1295
18927THY    CA260475   1.327   4.142   3.410 -0.6668  0.4920  0.4124
18927THY    CP160476   1.276   4.071   3.285  0.0991  0.2746 -0.0349
18927THY    HP160477   1.307   4.124   3.194 -0.2434  1.1167  1.6883
18927THY    CP260478   1.120   4.058   3.296 -0.3170 -0.3011 -0.6787
18927THY    HP260479   1.083   4.011   3.204  0.0593  0.1604 -1.9436
18927THY    HP360480   1.063   4.149   3.316 -2.5598 -0.5326 -1.9657
18927THY    HP460481   1.094   3.983   3.372 -1.0551 -1.1741 -1.3272
18927THY    CP360482   1.342   3.928   3.267  0.2528  0.4096 -1.1590
18927THY    HP560483   1.304   3.911   3.166  0.4528 -0.2121  1.5541
18927THY    HP660484   1.305   3.851   3.335 -0.0393  0.0339 -1.3481
18927THY    HP760485   1.452   3.937   3.266  0.0812  0.7106  2.6448
18927THY    CA360486   1.358   4.066   3.525  0.4627  0.0741 -0.3063
18927THY    HA360487   1.352   3.957   3.523  2.2616 -1.0070 -0.4335
18927THY    CA460488   1.381   4.128   3.649 -0.5902  0.5185 -0.5626
18927THY    HA460489   1.410   4.063   3.731  2.2132  0.8687  0.9927
18927THY    CA560490   1.404   4.270   3.651 -0.8177 -0.0589  0.8418
18927THY    CM160491   1.455   4.338   3.782 -0.6440  0.3001  0.2379
18927THY    HM160492   1.562   4.328   3.803 -0.6366  0.0446 -0.2643
18927THY    HM260493   1.397   4.290   3.862 -0.1467 -0.2817 -1.4147
18927THY    HM360494   1.439   4.446   3.790  3.1769  0.5038  0.9076
18927THY    CA660495   1.368   4.349   3.548 -0.5262  0.8717  0.2709
18927THY    HA660496   1.394   4.454   3.548 -1.2594 -2.5210  0.5698
18928THY      O60497   5.858   2.281   3.842  0.6055  0.0429  0.1233
18928THY     HO60498   5.945   2.310   3.874  1.0471  1.6284 -2.6971
18928THY    CA160499   5.849   2.336   3.722 -0.3185 -0.0128 -0.0642
18928THY    CA260500   5.727   2.333   3.650  0.2995 -0.2487  0.1140
18928THY    CP160501   5.598   2.284   3.717 -0.4868  0.1637 -0.1980
18928THY    HP160502   5.587   2.283   3.826  1.6548  0.4247 -1.3462
18928THY    CP260503   5.583   2.128   3.679 -0.1512 -0.1390 -0.2223
18928THY    HP260504   5.580   2.106   3.572 -0.9284 -0.0199 -0.7799
18928THY    HP360505   5.484   2.086   3.704  0.2902  0.5998 -0.8390
18928THY    HP460506   5.661   2.067   3.726  0.2090  2.0448  1.7820
18928THY    CP360507   5.485   2.365   3.664  0.3280  0.5848 -0.7465
18928THY    HP560508   5.493   2.465   3.707 -0.5324 -0.6406 -0.1172
18928THY    HP660509   5.384   2.326   3.685 -0.2305 -0.7328 -0.0993
18928THY    HP760510   5.491   2.381   3.556  1.8384  0.6690 -0.6016
18928THY    CA360511   5.729   2.378   3.515 -1.1601  0.2876 -0.5001
18928THY    HA360512   5.649   2.375   3.442 -0.4920 -0.4302 -1.5710
18928THY    CA460513   5.845   2.429   3.461 -1.4424  0.2880 -0.7573
18928THY    HA460514   5.852   2.471   3.361  0.6067  1.2934  1.5387
18928THY    CA560515   5.968   2.432   3.541 -0.6913  0.2901  0.3970
18928THY    CM160516   6.099   2.496   3.500 -0.7899 -0.1870  0.0377
18928THY    HM160517   6.154   2.541   3.583  0.7580 -0.1293 -1.7894
18928THY    HM260518   6.074   2.570   3.423 -1.3772  0.1809  0.2256
18928THY    HM360519   6.168   2.436   3.439  2.6144  1.3046  2.1496
18928THY    CA660520   5.963   2.380   3.671 -0.3800 -0.5254 -0.8930
18928THY    HA660521   6.050   2.387   3.736 -0.3247 -0.3732 -2.6463
18929THY      O60522   9.120   6.346   5.952  0.1242 -0.9167  0.0498
18929THY     HO60523   9.173   6.421   5.984  2.6136 -0.4906 -1.7299
18929THY    CA160524   9.146   6.234   6.022  0.7858  0.6100  0.6803
18929THY    CA260525   9.042   6.144   6.067 -0.2830  0.8227 -0.1292
18929THY    CP160526   8.901   6.172   6.041 -0.3333 -0.0821  0.2062
18929THY    HP160527   8.896   6.240   5.955  0.9877 -0.3295  0.0141
18929THY    CP260528   8.837   6.245   6.162 -0.3987  0.5120  0.8472
18929THY    HP260529   8.842   6.353   6.144 -0.2411  1.4229  0.9951
18929THY    HP360530   8.876   6.216   6.260  0.4533 -0.6511 -2.3958
18929THY    HP460531   8.731   6.221   6.169  0.2969  4.4180 -1.9209
18929THY    CP360532   8.833   6.044   6.001 -0.1744  0.0055 -0.6049
18929THY    HP560533   8.740   6.080   5.957 -0.5376  0.0676 -1.4558
18929THY    HP660534   8.816   5.972   6.082 -0.7083 -0.8330 -1.4482
18929THY    HP760535   8.890   5.985   5.929  0.8149  0.8534 -0.7200
18929THY    CA360536   9.079   6.033   6.147 -0.3123  0.0865 -0.8906
18929THY    HA360537   9.005   5.967   6.191 -1.0720 -1.6878 -1.2684
18929THY    CA460538   9.218   6.022   6.176 -0.3103  0.4032 -0.4477
18929THY    HA460539   9.245   5.946   6.249 -1.2832  0.1803 -1.0210
18929THY    CA560540   9.316   6.115   6.134 -0.2869  0.2096 -0.2537
18929THY    CM160541   9.457   6.102   6.182  0.2115  0.4358  0.7615
18929THY    HM160542   9.526   6.181   6.152  1.3144 -1.3348 -0.7982
18929THY    HM260543   9.492   6.012   6.130  0.1562 -0.2214  1.1177
18929THY    HM360544   9.453   6.075   6.288  2.9157  0.0847 -1.5479
18929THY    CA660545   9.282   6.214   6.047 -0.3942  0.2620 -0.0761
18929THY    HA660546   9.357   6.284   6.010  0.2709  0.8392 -0.4735
18930THY      O60547   3.163   3.577   6.624  0.6291  0.1241 -0.0184
18930THY     HO60548   3.239   3.537   6.670 -0.2812 -0.1841 -2.2140
18930THY    CA160549   3.051   3.504   6.643 -0.4834  0.6070  0.5015
18930THY    CA260550   2.955   3.487   6.540 -0.1356  0.1740 -0.1412
18930THY    CP160551   2.974   3.561   6.401 -0.5556  0.0657  0.4999
18930THY    HP160552   3.061   3.627   6.396  0.6651  1.5803 -0.8902
18930THY    CP260553   2.843   3.640   6.375  0.3764  0.1538 -0.6034
18930THY    HP260554   2.825   3.713   6.455 -0.8336  1.5911 -2.3874
18930THY    HP360555   2.756   3.573   6.378  0.5087 -3.4281 -1.0963
18930THY    HP460556   2.862   3.691   6.281  2.4973  0.7341 -0.2514
18930THY    CP360557   2.992   3.464   6.285  0.7040  0.1566  0.9556
18930THY    HP560558   3.072   3.392   6.300  0.7841  0.7587  1.1691
18930THY    HP660559   3.031   3.515   6.196  1.1020 -0.6124 -0.6371
18930THY    HP760560   2.903   3.407   6.255  1.8105 -0.3176 -0.5916
18930THY    CA360561   2.848   3.393   6.556  0.3090 -0.7956  0.5761
18930THY    HA360562   2.781   3.364   6.476 -0.0484  0.7266 -3.4604
18930THY    CA460563   2.839   3.336   6.689  0.0470  0.3616  0.4129
18930THY    HA460564   2.753   3.272   6.704  0.1420  0.4269  0.3005
18930THY    CA560565   2.931   3.367   6.797  0.5414  0.5428  0.0675
18930THY    CM160566   2.921   3.302   6.935 -0.0715 -0.8905  0.1098
18930THY    HM160567   2.874   3.205   6.916 -0.4654 -1.9978  0.4983
18930THY    HM260568   2.856   3.359   7.003  1.4676 -0.4847  1.4379
18930THY    HM360569   3.019   3.282   6.978 -0.0597  0.3061  2.4278
18930THY    CA660570   3.038   3.452   6.769  0.1066  0.4928  0.5431
18930THY    HA660571   3.119   3.457   6.841  1.4754 -0.7130 -2.1735
18931THY      O60572   4.719   8.046   2.161 -0.1376 -0.0061 -0.4102
18931THY     HO60573   4.644   8.106   2.146  0.2910 -3.5524 -0.5467
18931THY    CA160574   4.836   8.116   2.148  0.0780  0.6495  0.0429
18931THY    CA260575   4.947   8.089   2.231  0.4036 -0.9598 -0.2231
18931THY    CP160576   4.951   7.968   2.320  0.0489  0.7233 -0.1724
18931THY    HP160577   4.886   7.888   2.283 -0.3328 -0.7119  0.7612
18931THY    CP260578   4.909   7.983   2.460  0.0160 -0.6145 -0.3920
18931THY    HP260579   4.902   7.888   2.515 -2.5117 -0.4068 -0.1565
18931THY    HP360580   4.816   8.040   2.473 -0.2730 -1.9368 -0.5488
18931THY    HP460581   4.983   8.049   2.507 -0.8218  0.7191 -0.3605
18931THY    CP360582   5.091   7.899   2.308  0.4981  1.0794 -0.9408
18931THY    HP560583   5.126   7.909   2.205 -0.0046  0.7784 -2.1510
18931THY    HP660584   5.082   7.794   2.337 -3.5325  0.9888 -0.7813
18931THY    HP760585   5.171   7.963   2.345 -0.5564 -1.0333  1.8274
18931THY    CA360586   5.057   8.176   2.223  0.2788  0.1404 -0.3748
18931THY    HA360587   5.140   8.160   2.291  0.9403 -0.8766 -1.4637
18931THY    CA460588   5.063   8.280   2.131  0.6143 -0.3619  0.1277
18931THY    HA460589   5.146   8.350   2.125 -0.7524 -2.1723  1.6996
18931THY    CA560590   4.949   8.309   2.048  0.0129 -0.7227 -1.1793
18931THY    CM160591   4.957   8.434   1.961  0.1763 -0.2021  0.8364
18931THY    HM160592   4.934   8.385   1.866 -1.0508  1.6196 -2.4652
18931THY    HM260593   5.060   8.473   1.961  0.9963 -3.4114 -0.9696
18931THY    HM360594   4.885   8.512   1.986 -1.2790 -2.3342  0.2473
18931THY    CA660595   4.832   8.227   2.055  0.0133  0.5988  0.6908
18931THY    HA660596   4.740   8.250   2.002  0.9437 -1.5504 -0.2828
18932THY      O60597   8.726   8.816   7.735 -0.1527  1.0769  0.0185
18932THY     HO60598   8.667   8.824   7.658  0.5676  0.5481  0.3955
18932THY    CA160599   8.821   8.736   7.678 -0.1703 -0.4776 -0.4878
18932THY    CA260600   8.942   8.705   7.741  0.0379  0.7405 -0.3840
18932THY    CP160601   8.974   8.762   7.876  0.2755  0.0161 -0.0269
18932THY    HP160602   8.879   8.795   7.921 -0.1080 -0.1534 -0.8726
18932THY    CP260603   9.072   8.878   7.873 -0.1289  0.5270  0.0325
18932THY    HP260604   9.045   8.967   7.814  2.4978  1.0332  1.2508
18932THY    HP360605   9.171   8.841   7.845 -0.3772  0.4014 -0.5481
18932THY    HP460606   9.089   8.907   7.977  1.6059  1.1294 -2.7841
18932THY    CP360607   9.028   8.653   7.964 -0.7549 -0.2501 -0.2107
18932THY    HP560608   9.126   8.612   7.936  0.9774 -0.0226  3.4250
18932THY    HP660609   8.955   8.572   7.977 -1.7740  1.1840  0.8982
18932THY    HP760610   9.033   8.690   8.067  1.5672 -0.9609  1.7149
18932THY    CA360611   9.038   8.627   7.673 -0.0725  0.2063  0.0874
18932THY    HA360612   9.140   8.615   7.707  0.4929 -1.7701 -1.1317
18932THY    CA460613   8.997   8.583   7.542 -0.0619 -0.0470 -0.4113
18932THY    HA460614   9.069   8.517   7.495  0.8616  0.6449  0.0795
18932THY    CA560615   8.870   8.612   7.486 -0.4488 -1.1522  0.7082
18932THY    CM160616   8.823   8.554   7.357  0.1416 -0.4003 -0.5527
18932THY    HM160617   8.843   8.628   7.278  1.9455  1.0042  0.5315
18932THY    HM260618   8.713   8.549   7.354  0.1642  0.7815 -3.6337
18932THY    HM360619   8.855   8.453   7.329 -0.6031  2.7732 -1.7684
18932THY    CA660620   8.785   8.687   7.556 -0.3435 -0.6046 -0.0139
18932THY    HA660621   8.693   8.726   7.513 -0.0901  1.5049  3.2811
18933THY      O60622   8.409   2.557   5.439  0.2307 -0.2848 -0.6364
18933THY     HO60623   8.412   2.653   5.428 -2.4626  1.1722 -0.2700
18933THY    CA160624   8.516   2.505   5.392  0.1057 -0.1873  0.8326
18933THY    CA260625   8.527   2.374   5.338  0.3977  0.6139  0.8935
18933THY    CP160626   8.407   2.278   5.332  0.2860 -0.0427  0.3167
18933THY    HP160627   8.318   2.332   5.365 -0.5191 -0.0518 -0.9677
18933THY    CP260628   8.422   2.163   5.429  0.1293  0.0536  1.2898
18933THY    HP260629   8.413   2.207   5.529 -1.8646  0.8599 -0.7029
18933THY    HP360630   8.516   2.106   5.421 -0.5829 -1.8450  0.2910
18933THY    HP460631   8.339   2.092   5.420  0.6631 -1.1178  0.8014
18933THY    CP360632   8.387   2.220   5.187 -0.0217  0.1323 -0.7008
18933THY    HP560633   8.293   2.164   5.180 -0.7226 -0.8417  0.5374
18933THY    HP660634   8.462   2.155   5.140  0.8440  0.6762 -0.1141
18933THY    HP760635   8.374   2.306   5.120 -2.4020  0.4717 -0.7281
18933THY    CA360636   8.650   2.328   5.285  0.7486  0.2857 -0.1829
18933THY    HA360637   8.666   2.226   5.252  2.4534  0.4032  0.0138
18933THY    CA460638   8.755   2.411   5.290  0.4782 -0.4788 -0.8911
18933THY    HA460639   8.846   2.375   5.242  0.8468 -0.2820 -0.2426
18933THY    CA560640   8.748   2.540   5.354 -0.3923  0.3064  0.2891
18933THY    CM160641   8.869   2.622   5.365 -0.4483 -0.6941  0.5621
18933THY    HM160642   8.955   2.557   5.385 -0.4070 -0.0401  0.8075
18933THY    HM260643   8.857   2.693   5.448 -1.4053  0.5931 -1.0365
18933THY    HM360644   8.894   2.679   5.275  2.6544 -1.0117 -1.1148
18933THY    CA660645   8.633   2.583   5.404  0.3092  0.0550 -0.0728
18933THY    HA660646   8.625   2.670   5.468  0.1513  1.3314 -1.0003
18934THY      O60647   8.465   0.544   2.374  1.1378  0.6085 -0.4139
18934THY     HO60648   8.470   0.641   2.382 -0.9483  0.6972 -0.2557
18934THY    CA160649   8.584   0.492   2.426 -0.0322  0.0319  0.3172
18934THY    CA260650   8.654   0.386   2.360  0.3307  0.0116 -0.5321
18934THY    CP160651   8.600   0.326   2.229  0.4070 -0.8059  0.0046
18934THY    HP160652   8.495   0.357   2.222  0.2605 -0.9773 -0.5222
18934THY    CP260653   8.598   0.172   2.227 -0.3946 -0.1026  0.1614
18934THY    HP260654   8.567   0.142   2.328 -0.2313  0.5887  2.1489
18934THY    HP360655   8.699   0.135   2.207 -0.6898 -1.9455  0.2287
18934THY    HP460656   8.530   0.131   2.151 -0.0562  0.1557 -0.9238
18934THY    CP360657   8.676   0.372   2.107  0.0030  0.5162 -0.2301
18934THY    HP560658   8.650   0.476   2.086  1.2578 -1.0162 -0.1849
18934THY    HP660659   8.644   0.310   2.023 -0.5585  0.4232  0.1877
18934THY    HP760660   8.783   0.353   2.122  0.1255 -0.7340 -0.5684
18934THY    CA360661   8.775   0.340   2.410 -0.0896 -0.3157 -0.9048
18934THY    HA360662   8.833   0.261   2.363  2.4536  1.0288  0.0292
18934THY    CA460663   8.828   0.401   2.530 -0.0444 -0.5500 -0.3465
18934THY    HA460664   8.915   0.362   2.582 -0.9941  0.4440 -1.2248
18934THY    CA560665   8.754   0.501   2.590 -0.0108 -0.4342 -0.2932
18934THY    CM160666   8.783   0.547   2.722 -1.0167  0.3370 -0.3008
18934THY    HM160667   8.819   0.649   2.710  0.9129 -0.5360 -1.0394
18934THY    HM260668   8.867   0.490   2.763 -0.7784  1.7025  0.9900
18934THY    HM360669   8.696   0.550   2.788 -1.5458 -0.3953  1.7304
18934THY    CA660670   8.638   0.551   2.537  0.4827  1.1976 -0.6002
18934THY    HA660671   8.581   0.629   2.586  1.2294 -0.9839  1.4241
18935THY      O60672   6.495   4.802   5.114 -0.0124  0.5864  0.2474
18935THY     HO60673   6.408   4.774   5.147 -1.4795 -1.2959  2.2284
18935THY    CA160674   6.551   4.699   5.044  0.3552 -0.4638 -0.3074
18935THY    CA260675   6.669   4.715   4.966  0.2771 -0.0207  0.0425
18935THY    CP160676   6.730   4.854   4.945 -0.2676  0.0753 -0.0094
18935THY    HP160677   6.701   4.925   5.023  0.8421 -0.3965  0.9818
18935THY    CP260678   6.696   4.914   4.804  0.2668 -0.4472 -0.4693
18935THY    HP260679   6.726   4.846   4.724 -0.6084 -1.4804  0.3118
18935THY    HP360680   6.748   5.008   4.783 -1.6459 -1.0194  0.5283
18935THY    HP460681   6.587   4.925   4.798  0.4107  0.5467  2.3252
18935THY    CP360682   6.885   4.854   4.968 -0.2270 -0.3518 -0.4176
18935THY    HP560683   6.919   4.959   4.970 -1.7662  1.1906  0.0922
18935THY    HP660684   6.940   4.811   4.883 -0.6113 -0.7971 -0.0402
18935THY    HP760685   6.917   4.797   5.056 -0.4564 -1.4156 -2.2578
18935THY    CA360686   6.724   4.599   4.899  1.1945 -0.5312 -0.8769
18935THY    HA360687   6.813   4.624   4.842  0.5771 -0.2105  2.5791
18935THY    CA460688   6.659   4.477   4.908 -0.5632 -0.1530  0.6686
18935THY    HA460689   6.697   4.391   4.853 -0.3030  1.1022 -0.0392
18935THY    CA560690   6.537   4.469   4.979 -0.2831  0.2429  0.1688
18935THY    CM160691   6.467   4.335   4.977 -0.3728  0.4529  0.3878
18935THY    HM160692   6.470   4.294   4.876 -2.0826  0.2200  0.7555
18935THY    HM260693   6.360   4.342   4.997 -0.3876  1.4591 -1.7539
18935THY    HM360694   6.523   4.273   5.048  0.3111  0.8824  1.4520
18935THY    CA660695   6.486   4.577   5.046 -0.1382 -0.1182  0.2393
18935THY    HA660696   6.397   4.565   5.108  0.0437  0.5208  1.9546
18936THY      O60697   4.224   9.427   4.829 -0.1781  0.2433 -0.6561
18936THY     HO60698   4.238   9.481   4.750 -1.4735  0.2681 -0.2627
18936THY    CA160699   4.336   9.359   4.864  0.5144  0.3193  0.0741
18936THY    CA260700   4.349   9.303   4.994 -0.9788 -0.0918 -0.2610
18936THY    CP160701   4.245   9.321   5.095  0.3691 -0.0698 -0.1461
18936THY    HP160702   4.178   9.406   5.081  2.5602 -2.0003  1.3893
18936THY    CP260703   4.296   9.354   5.238 -0.4583  0.3871 -0.4077
18936THY    HP260704   4.366   9.283   5.284  1.5444  2.3586  2.5660
18936THY    HP360705   4.207   9.354   5.302 -0.1615  0.8003 -0.6467
18936THY    HP460706   4.344   9.453   5.242  0.1844  0.5669 -0.7209
18936THY    CP360707   4.173   9.180   5.095  0.6767 -0.1319 -0.4930
18936THY    HP560708   4.236   9.095   5.125  0.7863  1.3897  0.0852
18936THY    HP660709   4.146   9.144   4.995 -0.7197  0.3830 -0.9267
18936THY    HP760710   4.091   9.183   5.168  0.9297  0.1304  0.4334
18936THY    CA360711   4.470   9.234   5.021 -0.0248  0.3410  0.5497
18936THY    HA360712   4.492   9.200   5.122 -0.2790 -0.7701 -3.4985
18936THY    CA460713   4.566   9.217   4.923  0.1034  0.5231  0.4711
18936THY    HA460714   4.660   9.164   4.939  0.0990  1.3832  0.6988
18936THY    CA560715   4.546   9.260   4.792 -0.3010  0.8403  0.4189
18936THY    CM160716   4.654   9.246   4.687 -0.2193 -0.5775  0.7846
18936THY    HM160717   4.735   9.314   4.714 -1.0634 -0.0893  1.6173
18936THY    HM260718   4.620   9.258   4.584 -2.0899 -0.2574 -1.1746
18936THY    HM360719   4.682   9.140   4.695 -0.4981  1.4240  0.8127
18936THY    CA660720   4.436   9.346   4.767  0.0339  0.1476 -0.1395
18936THY    HA660721   4.425   9.389   4.668 -0.6269  0.5793  0.7027
18937THY      O60722   5.268   1.603   6.704 -0.7037  0.0743  0.1946
18937THY     HO60723   5.351   1.631   6.662  1.2557  2.6650 -1.2471
18937THY    CA160724   5.183   1.707   6.727  0.4726  0.3826  0.8516
18937THY    CA260725   5.060   1.671   6.779  0.3543  0.4585  0.5239
18937THY    CP160726   5.019   1.533   6.814 -0.3049 -0.1822 -0.2721
18937THY    HP160727   5.098   1.459   6.793  0.3109 -0.1067  0.3451
18937THY    CP260728   4.888   1.488   6.744 -0.0548  0.2017 -0.4024
18937THY    HP260729   4.813   1.565   6.765 -0.2179 -1.2216 -0.1377
18937THY    HP360730   4.855   1.392   6.785  0.6494 -2.8545 -2.1068
18937THY    HP460731   4.902   1.486   6.635 -0.5373  0.0770  1.1570
18937THY    CP360732   5.013   1.521   6.966  0.3157  0.3073  0.0985
18937THY    HP560733   5.012   1.414   6.990 -3.8612 -0.9503 -0.3344
18937THY    HP660734   4.917   1.566   6.995  0.0885  0.6005 -0.5684
18937THY    HP760735   5.093   1.573   7.020 -0.7854  1.2577  0.8669
18937THY    CA360736   4.974   1.785   6.801 -0.2183 -0.5409 -0.4345
18937THY    HA360737   4.871   1.789   6.835  0.4920  1.6099  1.9396
18937THY    CA460738   5.024   1.914   6.782  1.0500 -0.5617 -0.7531
18937THY    HA460739   4.961   2.000   6.807  0.3877 -0.7648 -1.1702
18937THY    CA560740   5.149   1.942   6.745 -0.2747  0.0692  0.7231
18937THY    CM160741   5.199   2.082   6.734 -0.9928 -0.3785 -0.0535
18937THY    HM160742   5.121   2.154   6.760  1.5076  1.4342  2.2308
18937THY    HM260743   5.249   2.103   6.639 -0.9860  0.2585  3.2658
18937THY    HM360744   5.274   2.107   6.811 -2.2964  1.4257 -1.4400
18937THY    CA660745   5.228   1.836   6.712 -0.1877  0.0875  0.5900
18937THY    HA660746   5.330   1.851   6.678  0.3669  1.3036 -0.2617
18938THY      O60747   6.606   1.429   3.574  0.6284 -0.2808 -0.1695
18938THY     HO60748   6.694   1.467   3.589  0.2903  0.3321  0.4019
18938THY    CA160749   6.526   1.540   3.591  0.5504  0.7469  0.1069
18938THY    CA260750   6.425   1.539   3.682 -0.0002  0.0673 -0.7273
18938THY    CP160751   6.392   1.406   3.749  0.1137 -0.3747 -0.5484
18938THY    HP160752   6.447   1.315   3.721  0.5630  2.3756 -1.2190
18938THY    CP260753   6.237   1.373   3.733 -0.1150 -0.3858  0.0391
18938THY    HP260754   6.177   1.464   3.732 -0.8838 -2.2320 -0.4400
18938THY    HP360755   6.200   1.324   3.823 -0.9993 -0.0371  1.3157
18938THY    HP460756   6.212   1.320   3.640 -2.1165  0.3401 -0.3776
18938THY    CP360757   6.411   1.423   3.902 -0.1006  0.1135 -0.1633
18938THY    HP560758   6.339   1.500   3.932 -1.2078  0.0299 -1.1351
18938THY    HP660759   6.511   1.460   3.927 -0.5371 -0.2025  1.2738
18938THY    HP760760   6.392   1.329   3.956  0.7560 -0.3494 -0.6094
18938THY    CA360761   6.338   1.650   3.700  0.4635 -0.0786  0.0116
18938THY    HA360762   6.262   1.651   3.778  1.6005  1.0579  1.3004
18938THY    CA460763   6.371   1.766   3.634 -0.4464  0.2677  0.3278
18938THY    HA460764   6.314   1.856   3.654  0.8056  0.7775  1.0375
18938THY    CA560765   6.475   1.774   3.539  0.0232 -1.0381  0.4247
18938THY    CM160766   6.513   1.907   3.473 -0.3369 -0.5662  0.1459
18938THY    HM160767   6.587   1.960   3.534 -0.7647 -1.1021  1.3900
18938THY    HM260768   6.430   1.975   3.454 -1.3667 -0.3644 -1.0154
18938THY    HM360769   6.576   1.901   3.383 -0.2952 -0.6061  1.0644
18938THY    CA660770   6.555   1.657   3.519 -0.3686 -0.2803 -0.3915
18938THY    HA660771   6.631   1.663   3.441 -0.9137 -0.8401 -0.6323
18939THY      O60772   0.773   7.576   2.698  0.5457 -0.2518 -0.4873
18939THY     HO60773   0.759   7.483   2.674 -0.0796  1.3824 -0.8561
18939THY    CA160774   0.906   7.586   2.710  0.2589  0.0748  0.4169
18939THY    CA260775   0.969   7.709   2.698 -0.4342 -0.8828 -0.1315
18939THY    CP160776   0.893   7.828   2.652  0.8395  0.8036 -0.4100
18939THY    HP160777   0.789   7.803   2.625  0.6159  0.6505  0.6113
18939THY    CP260778   0.967   7.880   2.519  0.0345 -0.2464  0.0356
18939THY    HP260779   0.901   7.939   2.454  0.8140 -1.1893 -0.1020
18939THY    HP360780   0.997   7.789   2.466  1.3014 -0.9686  0.8454
18939THY    HP460781   1.056   7.938   2.544 -0.0442  0.9831 -0.3556
18939THY    CP360782   0.873   7.936   2.756  0.0042 -0.2682  0.0791
18939THY    HP560783   0.790   7.997   2.718  0.1326 -2.2010 -0.8748
18939THY    HP660784   0.952   8.004   2.790  1.6146  0.0955 -1.8749
18939THY    HP760785   0.828   7.886   2.842 -1.3787 -0.7921  0.3869
18939THY    CA360786   1.105   7.711   2.729  0.4170 -0.0035  0.9838
18939THY    HA360787   1.169   7.798   2.719  1.1701  1.5112  0.6344
18939THY    CA460788   1.168   7.600   2.782 -0.2638  0.3481 -0.5740
18939THY    HA460789   1.275   7.610   2.797 -0.1241 -0.9011  0.0791
18939THY    CA560790   1.103   7.480   2.789 -0.0971 -0.4396 -0.4084
18939THY    CM160791   1.169   7.361   2.846  0.5709 -0.1993 -0.8420
18939THY    HM160792   1.181   7.290   2.763 -0.8859 -1.1761  0.0041
18939THY    HM260793   1.098   7.302   2.904 -0.1100 -1.5249 -1.3777
18939THY    HM360794   1.255   7.396   2.904 -0.6677 -0.6978  3.5597
18939THY    CA660795   0.971   7.469   2.750 -0.1611  0.0341 -0.3273
18939THY    HA660796   0.927   7.370   2.755 -0.0595 -2.2245 -0.5446
18940THY      O60797   2.321   8.077   2.288 -0.5927 -0.4318 -0.4051
18940THY     HO60798   2.275   8.081   2.374 -2.1634 -1.2530 -0.2142
18940THY    CA160799   2.451   8.110   2.316  0.4152  0.3548  0.1684
18940THY    CA260800   2.547   8.112   2.216  0.3170  0.1607 -0.1767
18940THY    CP160801   2.512   8.070   2.075  0.0410 -0.3575  0.5785
18940THY    HP160802   2.409   8.038   2.059  0.5151 -0.5986 -0.9046
18940THY    CP260803   2.602   7.947   2.039 -0.5944  0.1740 -0.2402
18940THY    HP260804   2.595   7.870   2.117 -0.7810 -0.8064 -1.2577
18940THY    HP360805   2.707   7.978   2.040 -0.6316  0.0550 -0.1110
18940THY    HP460806   2.576   7.898   1.944 -1.9350 -0.1673  1.0753
18940THY    CP360807   2.545   8.193   1.996  0.3207 -0.0678 -0.4665
18940THY    HP560808   2.533   8.166   1.890 -1.4509  0.2976 -1.2717
18940THY    HP660809   2.645   8.233   2.016  0.2213 -1.4277  0.5651
18940THY    HP760810   2.473   8.271   2.024 -3.1226 -0.0692 -3.3648
18940THY    CA360811   2.679   8.155   2.253  0.4127  0.8929 -0.3688
18940THY    HA360812   2.763   8.175   2.187  0.9891  1.4133 -1.0235
18940THY    CA460813   2.702   8.211   2.381  0.2484 -0.4878  0.1879
18940THY    HA460814   2.800   8.253   2.400 -0.1330 -2.6168  2.2710
18940THY    CA560815   2.605   8.197   2.472 -0.3571 -0.7673  0.1355
18940THY    CM160816   2.632   8.250   2.612  0.1811 -0.1165  0.1548
18940THY    HM160817   2.593   8.349   2.639 -0.3692 -0.7680  0.1182
18940THY    HM260818   2.738   8.261   2.639  0.5979 -0.3203 -2.6670
18940THY    HM360819   2.581   8.178   2.676  0.0375 -0.9609 -0.5033
18940THY    CA660820   2.484   8.145   2.443  0.6281 -0.4947 -0.5656
18940THY    HA660821   2.409   8.135   2.521 -0.6116 -1.4948  0.4362
18941THY      O60822   5.751   4.900   3.198 -0.5224  0.4022 -0.1027
18941THY     HO60823   5.688   4.956   3.149  1.0201 -1.5407  0.0442
18941THY    CA160824   5.701   4.881   3.316 -0.3301 -0.4760  0.8271
18941THY    CA260825   5.775   4.824   3.418 -0.3764  1.1204 -0.0775
18941THY    CP160826   5.919   4.775   3.400  0.4166 -0.2803  0.2225
18941THY    HP160827   5.951   4.802   3.299  1.3257 -0.5757 -1.7651
18941THY    CP260828   5.934   4.623   3.398  0.0681  0.6776  0.5577
18941THY    HP260829   5.871   4.575   3.322 -2.6838  1.1097  3.1868
18941THY    HP360830   5.898   4.579   3.492 -2.0104  0.3397  1.4317
18941THY    HP460831   6.040   4.598   3.383 -0.0421  1.3071 -0.3363
18941THY    CP360832   6.010   4.834   3.510  0.8657  0.3582 -0.2233
18941THY    HP560833   6.111   4.865   3.481 -0.5190 -1.3360  3.1723
18941THY    HP660834   6.020   4.766   3.596 -1.1924 -0.5738 -1.7939
18941THY    HP760835   5.964   4.930   3.535  0.3308 -0.8362 -0.1610
18941THY    CA360836   5.722   4.814   3.545  1.3950 -0.4290  0.2760
18941THY    HA360837   5.781   4.773   3.627 -2.4305  1.8325 -1.1980
18941THY    CA460838   5.589   4.863   3.563  0.9873 -0.4644  0.4797
18941THY    HA460839   5.543   4.864   3.661 -0.7386 -1.2075 -0.4703
18941THY    CA560840   5.517   4.915   3.457  0.2328  0.5463  0.6931
18941THY    CM160841   5.382   4.981   3.479  0.4109  0.7481 -0.4380
18941THY    HM160842   5.364   5.043   3.391 -2.6325  0.9829 -0.8152
18941THY    HM260843   5.383   5.039   3.572 -0.5330  0.0515  0.7353
18941THY    HM360844   5.305   4.903   3.489 -1.7754  0.3599  1.5603
18941THY    CA660845   5.577   4.928   3.331  0.0079  0.0860 -0.1648
18941THY    HA660846   5.523   4.972   3.247 -0.6742 -0.0397 -1.2196
18942THY      O60847   1.293   3.578   7.710  0.7591  0.5196  0.1397
18942THY     HO60848   1.224   3.569   7.777 -1.0860 -1.3914 -0.9019
18942THY    CA160849   1.406   3.513   7.751  0.2405 -0.2988  0.5111
18942THY    CA260850   1.527   3.523   7.686  0.7677  0.0916  0.6121
18942THY    CP160851   1.551   3.627   7.574  0.1678  0.2419  0.2398
18942THY    HP160852   1.469   3.699   7.575  0.8142  0.9892  0.9782
18942THY    CP260853   1.570   3.559   7.441 -0.2814  0.1678  0.0875
18942THY    HP260854   1.650   3.611   7.388  1.5145  2.0857 -0.5837
18942THY    HP360855   1.477   3.578   7.386  0.2703 -0.2041  1.9534
18942THY    HP460856   1.592   3.452   7.451  0.7218 -1.0714  0.1591
18942THY    CP360857   1.679   3.717   7.608  0.4205  0.6637 -0.4266
18942THY    HP560858   1.650   3.771   7.699 -1.1657 -1.1223  1.9721
18942THY    HP660859   1.692   3.789   7.526 -0.0969 -0.5683 -1.6922
18942THY    HP760860   1.773   3.662   7.623  1.2319 -3.2990 -0.4665
18942THY    CA360861   1.635   3.448   7.733 -0.2369 -0.0091  0.2413
18942THY    HA360862   1.726   3.452   7.674  1.2061  2.0388 -0.9943
18942THY    CA460863   1.622   3.366   7.842 -0.1746 -0.4110 -0.6432
18942THY    HA460864   1.711   3.310   7.871 -0.1688  0.6940 -0.0851
18942THY    CA560865   1.496   3.350   7.897 -0.0741 -0.6403 -0.5533
18942THY    CM160866   1.466   3.253   8.003 -0.2292  0.1014 -0.2189
18942THY    HM160867   1.556   3.248   8.065 -0.2407  0.3196  1.6973
18942THY    HM260868   1.455   3.158   7.950 -2.4966  0.8753 -0.4326
18942THY    HM360869   1.380   3.282   8.063  0.2227  0.7713 -0.2568
18942THY    CA660870   1.384   3.424   7.852 -0.1248 -0.9752  0.8145
18942THY    HA660871   1.286   3.400   7.891  1.1019  0.9974 -1.3412
18943THY      O60872   8.148   8.552   7.696  0.4888 -0.1473  0.0820
18943THY     HO60873   8.242   8.544   7.673  0.8448  0.7853  1.2426
18943THY    CA160874   8.090   8.430   7.694  0.0657 -0.1930  0.2108
18943THY    CA260875   7.956   8.403   7.662  0.5544 -0.1871 -0.1486
18943THY    CP160876   7.861   8.516   7.603 -0.4177  0.6735  0.7190
18943THY    HP160877   7.916   8.608   7.623  1.1065 -4.7500  1.3254
18943THY    CP260878   7.723   8.514   7.662  0.1515 -0.1700 -0.2591
18943THY    HP260879   7.669   8.602   7.625  0.6021 -1.2094 -0.4007
18943THY    HP360880   7.735   8.521   7.770  0.4002 -0.2867  1.7581
18943THY    HP460881   7.662   8.427   7.634  0.2033 -0.1979 -0.2873
18943THY    CP360882   7.858   8.513   7.445  0.6588  0.0065 -0.2161
18943THY    HP560883   7.837   8.614   7.408  2.3352 -0.9015 -0.1657
18943THY    HP660884   7.777   8.448   7.408  0.2088  0.5435  0.0273
18943THY    HP760885   7.951   8.477   7.401 -0.0844 -0.5574 -1.5290
18943THY    CA360886   7.900   8.278   7.668  0.0876  0.3726  0.2833
18943THY    HA360887   7.800   8.253   7.633 -0.4836  1.5028  0.9287
18943THY    CA460888   7.984   8.168   7.712 -0.0220 -0.6162  0.6779
18943THY    HA460889   7.950   8.066   7.723 -0.0961  0.5089  0.8142
18943THY    CA560890   8.119   8.193   7.731 -0.4283 -0.1873  0.5713
18943THY    CM160891   8.208   8.078   7.771 -0.5721  0.4239 -0.1260
18943THY    HM160892   8.265   8.047   7.682 -3.2980 -1.5093  0.0771
18943THY    HM260893   8.143   7.994   7.798  1.6298  2.8231 -1.2116
18943THY    HM360894   8.277   8.097   7.854  2.1344 -1.4768 -1.0068
18943THY    CA660895   8.168   8.319   7.726 -0.4557  0.5241 -0.1653
18943THY    HA660896   8.271   8.339   7.755 -0.1149 -0.4943 -0.3550
18944THY      O60897   4.904   8.318   4.067  0.4240 -0.0568 -0.5614
18944THY     HO60898   4.994   8.325   4.103  0.2323  0.3676 -0.2223
18944THY    CA160899   4.827   8.427   4.096 -0.1262  0.6503 -0.5005
18944THY    CA260900   4.694   8.428   4.066 -0.7417 -0.7113  0.9929
18944THY    CP160901   4.626   8.311   3.996 -0.5174 -0.2065 -0.2747
18944THY    HP160902   4.695   8.226   4.001  0.7077 -2.1604  0.5412
18944THY    CP260903   4.623   8.335   3.845  0.0665 -0.1723 -0.9752
18944THY    HP260904   4.556   8.420   3.830 -1.0807 -0.0704 -1.8371
18944THY    HP360905   4.579   8.245   3.800 -1.2121  1.7128 -1.3652
18944THY    HP460906   4.723   8.356   3.806 -0.1025 -0.1122 -0.0091
18944THY    CP360907   4.488   8.272   4.054 -0.5123 -0.2893  0.0812
18944THY    HP560908   4.427   8.362   4.069  1.0091 -1.4448  1.3731
18944THY    HP660909   4.509   8.217   4.146  0.0336 -1.5319 -1.8703
18944THY    HP760910   4.441   8.198   3.989  0.6858  0.3661 -1.3018
18944THY    CA360911   4.625   8.550   4.082  0.1858  0.4273 -0.0153
18944THY    HA360912   4.524   8.557   4.043  0.6090 -0.4271  1.8620
18944THY    CA460913   4.682   8.660   4.156 -0.0525  0.0612 -0.2507
18944THY    HA460914   4.625   8.749   4.178  1.2766 -2.2030  1.2754
18944THY    CA560915   4.818   8.655   4.177 -0.0245 -0.7265  0.0772
18944THY    CM160916   4.889   8.772   4.235 -0.5484 -0.3105 -0.0542
18944THY    HM160917   4.896   8.851   4.159  0.4318 -0.7082 -0.4988
18944THY    HM260918   4.987   8.732   4.263 -0.1848 -2.9448 -1.2622
18944THY    HM360919   4.856   8.819   4.328  2.9269 -0.3468  2.8973
18944THY    CA660920   4.890   8.535   4.150  0.0288 -0.5038 -0.1349
18944THY    HA660921   4.995   8.531   4.177 -0.0775  0.5600  2.6835
18945THY      O60922   7.521   2.075   7.680  0.6802 -0.1825 -0.1085
18945THY     HO60923   7.600   2.072   7.736  0.0633  0.7002 -0.4207
18945THY    CA160924   7.510   1.954   7.645  0.8130  0.6455  0.0708
18945THY    CA260925   7.411   1.917   7.554  0.6640 -0.1959  0.7516
18945THY    CP160926   7.308   2.023   7.509  0.6275  0.8152  0.1639
18945THY    HP160927   7.326   2.127   7.539  1.8592 -2.8058  1.1594
18945THY    CP260928   7.166   1.972   7.549 -0.0027  0.1161  0.1878
18945THY    HP260929   7.084   2.000   7.483  0.7998 -1.4628 -1.0291
18945THY    HP360930   7.140   2.033   7.636  0.5056 -0.6801  1.5713
18945THY    HP460931   7.152   1.867   7.580 -1.5589  0.2751  0.4290
18945THY    CP360932   7.312   2.035   7.356  0.1066  0.7117 -0.3037
18945THY    HP560933   7.273   2.127   7.312  0.0646 -3.1388 -1.9526
18945THY    HP660934   7.281   1.946   7.300  1.0191 -0.6819  0.2102
18945THY    HP760935   7.416   2.048   7.324 -0.2943 -0.2495  0.6957
18945THY    CA360936   7.403   1.780   7.520  0.3990  0.5858 -0.5988
18945THY    HA360937   7.343   1.741   7.438  1.2171  0.6872 -2.1471
18945THY    CA460938   7.494   1.688   7.572 -0.0105  0.1304 -0.2088
18945THY    HA460939   7.482   1.584   7.540 -1.4760 -0.3379  0.0740
18945THY    CA560940   7.585   1.728   7.670 -0.4200  0.1027  0.5153
18945THY    CM160941   7.695   1.638   7.718  0.0455  0.0822  0.0989
18945THY    HM160942   7.702   1.636   7.828  0.8941  0.0581 -3.2223
18945THY    HM260943   7.794   1.659   7.674 -0.5507 -0.6982  1.4391
18945THY    HM360944   7.665   1.539   7.685 -0.4744  1.7073 -0.3144
18945THY    CA660945   7.601   1.863   7.699  0.1052 -0.4910 -0.3552
18945THY    HA660946   7.678   1.904   7.764 -0.3770  0.1455 -0.4459
18946THY      O60947   3.093   2.989   3.284 -0.0818 -0.6073 -0.3119
18946THY     HO60948   3.068   3.023   3.372  2.4496  0.8275 -1.7467
18946THY    CA160949   3.042   2.859   3.282 -0.5092 -0.5302 -0.0004
18946THY    CA260950   2.926   2.825   3.207 -0.2617  0.2626  0.4463
18946THY    CP160951   2.844   2.939   3.141  0.5034 -0.2514 -0.9328
18946THY    HP160952   2.900   3.033   3.150  1.1291 -2.1335 -1.0895
18946THY    CP260953   2.718   2.963   3.211 -0.2827 -0.5038 -0.0006
18946THY    HP260954   2.671   3.054   3.170  0.3626 -0.2911  0.4370
18946THY    HP360955   2.749   2.989   3.312  1.0582 -0.7779 -0.4768
18946THY    HP460956   2.656   2.874   3.203 -1.3740  0.6491  0.6251
18946THY    CP360957   2.822   2.912   2.997 -0.2990  1.0202  0.1098
18946THY    HP560958   2.919   2.901   2.948  0.1998  1.8363  0.7932
18946THY    HP660959   2.781   2.995   2.938  0.5462  0.1744 -0.0557
18946THY    HP760960   2.755   2.825   2.994 -0.7558  0.0097  0.4775
18946THY    CA360961   2.886   2.690   3.192  0.3426  0.0418 -0.0070
18946THY    HA360962   2.802   2.659   3.130  0.5353 -0.2511  0.0548
18946THY    CA460963   2.959   2.588   3.256  0.1213 -0.2700 -0.0650
18946THY    HA460964   2.931   2.484   3.244 -1.7411  1.0881  0.2270
18946THY    CA560965   3.078   2.620   3.328  0.5688  0.0513  0.1867
18946THY    CM160966   3.168   2.515   3.373  0.8361  0.4638  0.5519
18946THY    HM160967   3.108   2.425   3.392 -1.5390  2.0177  2.3256
18946THY    HM260968   3.203   2.548   3.472 -0.7089  1.4441 -0.5734
18946THY    HM360969   3.254   2.498   3.308  1.3057  0.4659  2.7163
18946THY    CA660970   3.118   2.758   3.334  0.1280 -0.4216  0.8103
18946THY    HA660971   3.212   2.780   3.385  1.1739 -1.4517 -0.9620
18947THY      O60972   1.469   5.545   3.665 -0.0998  0.3012 -0.3398
18947THY     HO60973   1.457   5.637   3.693  0.5791  0.5219 -0.3078
18947THY    CA160974   1.413   5.549   3.544  0.1183  0.0362  0.3055
18947THY    CA260975   1.409   5.440   3.453 -0.4368 -0.2491  0.8994
18947THY    CP160976   1.440   5.295   3.496 -0.5372  0.6628  0.1175
18947THY    HP160977   1.498   5.292   3.589 -1.5062  1.2788 -2.1203
18947THY    CP260978   1.529   5.217   3.403  0.2025  0.3989 -0.4475
18947THY    HP260979   1.553   5.121   3.449  0.5145  1.7525  0.2524
18947THY    HP360980   1.624   5.269   3.383 -0.7303 -2.2025  0.4554
18947THY    HP460981   1.490   5.189   3.305 -0.1050  0.0317  1.1609
18947THY    CP360982   1.310   5.217   3.525  0.3559 -0.0309  0.1966
18947THY    HP560983   1.338   5.113   3.544 -1.2295 -0.9217 -0.4306
18947THY    HP660984   1.230   5.221   3.450 -0.1182  0.4786  0.3744
18947THY    HP760985   1.271   5.260   3.618 -0.0015 -0.0940  0.0096
18947THY    CA360986   1.363   5.464   3.323 -0.9885  0.6500  0.2163
18947THY    HA360987   1.352   5.394   3.241 -0.8444  1.1623 -0.4194
18947THY    CA460988   1.306   5.590   3.291 -0.1537 -0.1781  0.3463
18947THY    HA460989   1.258   5.604   3.194  1.2720 -0.8304  1.0101
18947THY    CA560990   1.306   5.696   3.383  0.0212  0.6177 -0.3598
18947THY    CM160991   1.246   5.819   3.337  0.3866 -0.7571 -0.4096
18947THY    HM160992   1.142   5.813   3.304  0.2920 -0.4445 -0.5268
18947THY    HM260993   1.316   5.866   3.267  0.8022 -0.6870 -0.9078
18947THY    HM360994   1.243   5.881   3.427  0.6840 -0.2735 -1.0740
18947THY    CA660995   1.356   5.672   3.513  0.5323 -0.0950 -0.3965
18947THY    HA660996   1.351   5.752   3.586 -5.0141 -1.5460  0.9685
18948THY      O60997   5.938   4.717   4.979  0.0580  0.0295  0.3849
18948THY     HO60998   5.893   4.632   4.992  0.6942 -0.4995 -0.0446
18948THY    CA160999   6.017   4.710   5.084 -0.1115 -0.5619  0.1104
18948THY    CA261000   6.086   4.820   5.130  0.2241  0.2095 -0.1854
18948THY    CP161001   6.062   4.951   5.055 -0.2701 -0.0875 -0.2507
18948THY    HP161002   6.001   4.951   4.964 -2.4868  1.3096 -0.8419
18948THY    CP261003   6.200   5.019   5.008 -0.0978  0.4734  0.4091
18948THY    HP261004   6.267   5.042   5.091  0.4986 -0.4760  2.3199
18948THY    HP361005   6.177   5.112   4.955  1.7814 -0.7627  0.2205
18948THY    HP461006   6.248   4.949   4.937 -0.0470  0.7612  0.1518
18948THY    CP361007   6.005   5.056   5.151  0.7654 -0.0805 -0.1237
18948THY    HP561008   5.909   5.024   5.194  0.2056 -1.3706 -0.2256
18948THY    HP661009   5.991   5.150   5.097  2.1119  2.6649  1.8015
18948THY    HP761010   6.061   5.079   5.243  1.3746  0.3500 -2.9738
18948THY    CA361011   6.180   4.804   5.238  0.4740 -0.1766 -0.4146
18948THY    HA361012   6.237   4.886   5.281 -1.8668  0.9540  0.6956
18948THY    CA461013   6.200   4.670   5.288 -0.2501 -0.0070 -0.0910
18948THY    HA461014   6.268   4.656   5.372  0.1694  0.7263  4.7162
18948THY    CA561015   6.128   4.558   5.244  0.0377  1.2424  0.4458
18948THY    CM161016   6.144   4.418   5.300 -0.1795  0.6721  0.1073
18948THY    HM161017   6.215   4.357   5.244  1.9639  2.0406  1.2157
18948THY    HM261018   6.048   4.366   5.301 -0.6085  0.1070  0.8669
18948THY    HM361019   6.179   4.423   5.404 -1.0342  0.9196  1.3145
18948THY    CA661020   6.039   4.578   5.138  0.3040  0.1127 -0.1821
18948THY    HA661021   5.986   4.490   5.102  0.3836  0.9053 -0.5670
18949THY      O61022   2.442   4.960   2.024 -0.2394  0.1231 -0.0166
18949THY     HO61023   2.450   5.040   1.969 -2.6993 -0.3716 -0.0312
18949THY    CA161024   2.491   4.846   1.965 -0.0216 -0.4609 -0.2142
18949THY    CA261025   2.512   4.733   2.049 -0.3429  0.9208  0.4685
18949THY    CP161026   2.474   4.732   2.198 -0.5316 -0.0004 -0.0963
18949THY    HP161027   2.403   4.815   2.209 -0.2212 -0.8183  0.2879
18949THY    CP261028   2.590   4.754   2.292 -0.6223 -0.2397  0.4363
18949THY    HP261029   2.634   4.854   2.279 -1.0518  2.5602  1.0578
18949THY    HP361030   2.664   4.673   2.294  0.2461 -1.6053  1.1534
18949THY    HP461031   2.548   4.752   2.393  1.1759  0.5754  1.2299
18949THY    CP361032   2.388   4.607   2.236 -0.1185  1.1585 -0.7052
18949THY    HP561033   2.290   4.621   2.189  0.4968  0.1367  0.3798
18949THY    HP661034   2.362   4.599   2.342  0.0114  1.1301 -1.5574
18949THY    HP761035   2.438   4.513   2.209 -0.9576 -0.9166 -0.5998
18949THY    CA361036   2.578   4.622   1.979  0.8001  0.5292  0.5749
18949THY    HA361037   2.606   4.531   2.032  1.4318 -0.3785  0.2312
18949THY    CA461038   2.605   4.622   1.846 -0.6859  0.3293 -0.7824
18949THY    HA461039   2.653   4.539   1.795  0.9343 -1.5204  1.1596
18949THY    CA561040   2.579   4.737   1.766  0.7134 -0.9779  0.4193
18949THY    CM161041   2.612   4.735   1.621  0.5590 -0.1504 -0.1405
18949THY    HM161042   2.514   4.735   1.571  0.4429  0.0680  0.2707
18949THY    HM261043   2.655   4.637   1.600  1.6985  0.3621  0.2417
18949THY    HM361044   2.669   4.826   1.600 -0.6590 -1.6502  0.3272
18949THY    CA661045   2.524   4.852   1.830 -0.0123 -0.1100  0.5554
18949THY    HA661046   2.508   4.941   1.770  2.0816 -1.2061  0.2684
18950THY      O61047   1.419   1.779   3.299  0.0380 -0.3863 -0.5749
18950THY     HO61048   1.425   1.684   3.320 -0.3128  0.6357 -0.3891
18950THY    CA161049   1.370   1.837   3.416 -0.2230 -0.1021 -0.0015
18950THY    CA261050   1.299   1.955   3.406 -0.3467  0.1347  0.1793
18950THY    CP161051   1.272   2.022   3.270 -0.0746  0.9095  0.4098
18950THY    HP161052   1.356   2.006   3.200  0.1107  0.2112  3.7790
18950THY    CP261053   1.266   2.177   3.273  0.5297  0.4092  0.9016
18950THY    HP261054   1.181   2.213   3.333 -0.6799 -0.5968 -0.1520
18950THY    HP361055   1.244   2.211   3.171 -0.6576  0.3332 -0.0301
18950THY    HP461056   1.363   2.220   3.298  0.6032  1.0923  0.3476
18950THY    CP361057   1.138   1.969   3.208 -0.2368  0.0372 -0.1645
18950THY    HP561058   1.115   2.017   3.113  2.1473  0.6497  2.4326
18950THY    HP661059   1.056   1.991   3.278 -1.4327 -1.3936  0.0450
18950THY    HP761060   1.139   1.860   3.195  0.3085 -1.2654 -0.0161
18950THY    CA361061   1.261   2.015   3.530 -0.3198 -1.0676 -0.6745
18950THY    HA361062   1.205   2.108   3.531  1.1055  0.6134  0.2365
18950THY    CA461063   1.279   1.934   3.650 -0.0224 -0.5549  0.0327
18950THY    HA461064   1.227   1.964   3.740  0.0645 -0.6283  0.4110
18950THY    CA561065   1.350   1.818   3.651 -0.5061  0.6251  0.0382
18950THY    CM161066   1.364   1.734   3.771 -0.2071 -0.4398 -0.0772
18950THY    HM161067   1.470   1.715   3.791 -0.1050 -0.0051  0.8915
18950THY    HM261068   1.300   1.644   3.765 -0.8657  0.7512  0.2906
18950THY    HM361069   1.328   1.784   3.862 -0.4223 -0.4754 -0.1637
18950THY    CA661070   1.406   1.776   3.529  0.4318 -0.6048  0.8747
18950THY    HA661071   1.453   1.679   3.525 -1.9689  2.2232 -0.5350
18951THY      O61072   7.119   2.870   2.492  0.2994  0.5826 -0.0755
18951THY     HO61073   7.159   2.818   2.421  1.6024  0.8834  0.4803
18951THY    CA161074   7.161   2.997   2.469 -0.3071  0.0774  1.3874
18951THY    CA261075   7.125   3.098   2.559  0.1547 -0.5227 -0.1189
18951THY    CP161076   7.079   3.063   2.701  0.3743 -0.4256  0.2345
18951THY    HP161077   7.018   2.971   2.707 -0.2653  2.3741  0.7423
18951THY    CP261078   6.988   3.162   2.772  0.2099  0.3369 -0.0140
18951THY    HP261079   7.044   3.250   2.805 -0.0081  2.1856 -0.5277
18951THY    HP361080   6.948   3.123   2.866 -0.6778 -0.0935 -0.1837
18951THY    HP461081   6.896   3.192   2.720 -1.1823  3.1453  0.9534
18951THY    CP361082   7.202   3.032   2.788 -0.3699 -0.0277 -0.2852
18951THY    HP561083   7.285   3.102   2.771 -1.1941  1.9132  1.2528
18951THY    HP661084   7.236   2.931   2.759 -0.2218  0.7187 -0.4537
18951THY    HP761085   7.184   3.020   2.895  0.2639  0.2195  0.8086
18951THY    CA361086   7.164   3.229   2.531 -0.1055 -0.2486 -0.6815
18951THY    HA361087   7.151   3.310   2.601  2.7992 -0.2368 -0.1113
18951THY    CA461088   7.228   3.254   2.410 -0.3994 -0.3322 -0.2812
18951THY    HA461089   7.253   3.353   2.371  0.2446  1.4496  0.2986
18951THY    CA561090   7.247   3.161   2.314 -0.2876  0.8198 -0.6921
18951THY    CM161091   7.327   3.191   2.193  0.0613 -0.3363 -0.2559
18951THY    HM161092   7.398   3.119   2.150  1.4033  1.1405  0.1251
18951THY    HM261093   7.381   3.286   2.187  2.5117  1.2080 -1.4576
18951THY    HM361094   7.249   3.201   2.116 -0.5228  0.3070  0.2587
18951THY    CA661095   7.222   3.028   2.343  0.6057 -0.0671  0.2239
18951THY    HA661096   7.249   2.947   2.276  0.8308 -0.0780  0.3079
18952THY      O61097   5.529   2.840   2.626  0.1193 -0.7563 -0.0133
18952THY     HO61098   5.569   2.751   2.625  0.7672 -1.4615  0.2717
18952THY    CA161099   5.540   2.880   2.496 -0.3558 -0.5757 -0.0700
18952THY    CA261100   5.466   2.986   2.448 -0.0627  0.4056 -0.3343
18952THY    CP161101   5.380   3.072   2.531  0.5845  0.2225  0.2851
18952THY    HP161102   5.362   3.034   2.632 -1.4975 -0.6110 -1.1023
18952THY    CP261103   5.234   3.091   2.474 -0.0958  0.4292  0.0482
18952THY    HP261104   5.176   3.144   2.550 -0.7341  1.0111 -1.4414
18952THY    HP361105   5.188   2.993   2.459 -0.8260  1.8059  0.1627
18952THY    HP461106   5.228   3.151   2.382 -1.3595  0.5701  0.1680
18952THY    CP361107   5.441   3.211   2.544  0.7707  0.4656 -0.3349
18952THY    HP561108   5.382   3.269   2.615  1.2822  2.2412 -1.8593
18952THY    HP661109   5.433   3.274   2.455  0.0019  0.3938 -0.5228
18952THY    HP761110   5.545   3.207   2.581  1.1538 -0.6306 -1.1914
18952THY    CA361111   5.488   3.027   2.316 -0.0933  0.4303 -0.0790
18952THY    HA361112   5.439   3.117   2.281 -0.2147 -1.5106 -0.8650
18952THY    CA461113   5.580   2.961   2.232  0.2736 -0.1822 -0.6854
18952THY    HA461114   5.594   2.994   2.129 -1.4018 -1.0493 -2.4660
18952THY    CA561115   5.654   2.855   2.285  0.8434 -0.5724  0.1342
18952THY    CM161116   5.753   2.785   2.197  0.2223  0.1316 -0.1219
18952THY    HM161117   5.840   2.849   2.181  0.0866 -0.4466 -0.0750
18952THY    HM261118   5.701   2.761   2.103 -1.3986  1.6164 -2.9330
18952THY    HM361119   5.781   2.690   2.245  0.1387 -1.0522 -0.7669
18952THY    CA661120   5.626   2.811   2.415  0.0032  0.0762  0.1241
18952THY    HA661121   5.689   2.730   2.451 -0.7707  0.1846 -0.4408
18953THY      O61122   8.714   3.201   1.729 -0.0889  0.8425 -0.1277
18953THY     HO61123   8.680   3.271   1.671  1.9635  0.5643  0.7315
18953THY    CA161124   8.845   3.227   1.730 -0.8600  0.2448 -0.4924
18953THY    CA261125   8.946   3.132   1.776  0.2207  0.4343 -0.0071
18953THY    CP161126   8.925   2.979   1.760  0.6705 -0.6215 -0.8986
18953THY    HP161127   8.825   2.959   1.721  1.0996 -1.5353 -1.3907
18953THY    CP261128   8.941   2.902   1.882 -0.3547 -0.4722  0.4242
18953THY    HP261129   8.868   2.940   1.954  0.1553  0.8052 -0.9442
18953THY    HP361130   9.047   2.918   1.905  0.1981 -0.8300 -2.1823
18953THY    HP461131   8.912   2.797   1.871 -2.7798 -0.6444  1.0566
18953THY    CP361132   9.010   2.913   1.648  1.3600 -0.5813  0.1290
18953THY    HP561133   8.954   2.827   1.611  1.7294 -0.0486 -0.3460
18953THY    HP661134   9.107   2.876   1.683  0.6090  0.8739 -0.5214
18953THY    HP761135   9.019   2.989   1.569 -0.6477 -1.1496 -0.1797
18953THY    CA361136   9.078   3.182   1.804 -0.1503  0.6979  0.3872
18953THY    HA361137   9.160   3.112   1.818  0.4264  0.6752  1.0469
18953THY    CA461138   9.103   3.321   1.795 -0.0611 -1.3140 -0.7453
18953THY    HA461139   9.201   3.363   1.816 -0.6644  0.0461  0.0326
18953THY    CA561140   9.006   3.413   1.765  0.0829 -0.0458 -0.5066
18953THY    CM161141   9.037   3.559   1.776  0.2265  0.5365  1.1822
18953THY    HM161142   9.044   3.591   1.881 -0.3692  1.0902 -0.4424
18953THY    HM261143   8.964   3.623   1.724 -0.0348  0.2692  0.6660
18953THY    HM361144   9.135   3.586   1.733  1.2972  1.5610 -0.8661
18953THY    CA661145   8.877   3.364   1.733 -0.4430 -0.1236 -0.1468
18953THY    HA661146   8.791   3.428   1.717 -1.9058  1.0296 -1.7454
18954THY      O61147   8.359   8.494   4.728 -0.1548  0.4771 -0.1934
18954THY     HO61148   8.314   8.518   4.811 -0.8595 -0.6057  2.6584
18954THY    CA161149   8.458   8.398   4.758 -0.0472  0.5946  0.3316
18954THY    CA261150   8.518   8.325   4.658  0.0540 -0.0211  0.4285
18954THY    CP161151   8.507   8.349   4.507  0.1573  0.5758  0.6698
18954THY    HP161152   8.451   8.441   4.486  1.3433  2.7150  1.9692
18954THY    CP261153   8.427   8.228   4.450  0.0257 -0.7075 -0.0376
18954THY    HP261154   8.329   8.219   4.498 -0.2203 -1.0753  0.6351
18954THY    HP361155   8.481   8.133   4.458 -0.2815 -0.2956 -0.1803
18954THY    HP461156   8.410   8.259   4.346  0.7987 -0.1191  2.6215
18954THY    CP361157   8.635   8.394   4.436 -0.0073 -0.2885 -0.0576
18954THY    HP561158   8.615   8.435   4.336  0.1555 -1.2579 -2.2162
18954THY    HP661159   8.710   8.315   4.421 -0.5098  1.7311 -0.9851
18954THY    HP761160   8.695   8.457   4.503  2.7020 -1.8435 -0.7939
18954THY    CA361161   8.604   8.223   4.701  0.0815 -0.4876  0.2834
18954THY    HA361162   8.666   8.167   4.632  0.9785  0.2344  0.3803
18954THY    CA461163   8.623   8.193   4.841 -0.0877 -0.3946  0.5144
18954THY    HA461164   8.693   8.124   4.886  0.9250  1.3945  2.5961
18954THY    CA561165   8.571   8.280   4.936 -0.4758 -0.4282 -0.0397
18954THY    CM161166   8.603   8.271   5.081 -0.2099 -0.0693  0.1562
18954THY    HM161167   8.538   8.205   5.140  0.4752  2.2038  1.3952
18954THY    HM261168   8.589   8.371   5.124 -0.5083 -1.9239  0.9626
18954THY    HM361169   8.706   8.238   5.097 -0.6252 -1.2753 -1.8993
18954THY    CA661170   8.488   8.386   4.892  0.0604  0.6487  0.6344
18954THY    HA661171   8.440   8.445   4.970 -0.8059  0.2471  0.4790
18955THY      O61172   3.052   6.653   2.566 -0.1484 -0.1449  0.0060
18955THY     HO61173   3.113   6.726   2.545  0.1042  0.3962 -0.0482
18955THY    CA161174   3.028   6.689   2.699 -0.7489 -0.1520 -0.8287
18955THY    CA261175   3.021   6.595   2.803  0.6823  0.1893  0.5856
18955THY    CP161176   3.031   6.443   2.781 -0.5194  0.3677  0.2829
18955THY    HP161177   3.047   6.411   2.677  0.1410  0.5279  0.0771
18955THY    CP261178   2.908   6.371   2.828 -0.3968  0.2209 -0.7129
18955THY    HP261179   2.906   6.267   2.794 -1.7427 -1.2213 -0.2595
18955THY    HP361180   2.826   6.418   2.772 -0.5046  2.1958  1.6710
18955THY    HP461181   2.885   6.370   2.935  1.7511  0.7374 -1.0557
18955THY    CP361182   3.164   6.387   2.844 -0.1194  0.1333  0.2447
18955THY    HP561183   3.150   6.279   2.835  1.3598  2.6496 -0.2446
18955THY    HP661184   3.171   6.412   2.951 -3.0376  0.3811  0.2850
18955THY    HP761185   3.251   6.422   2.788  0.2998  0.4973 -0.2037
18955THY    CA361186   3.006   6.644   2.936  0.8605 -0.1609  0.5610
18955THY    HA361187   3.008   6.573   3.018  0.6656 -0.6803 -0.0598
18955THY    CA461188   2.989   6.778   2.959 -0.6210  0.3678  0.1138
18955THY    HA461189   2.970   6.815   3.059 -1.5802  0.3925 -0.4195
18955THY    CA561190   2.999   6.867   2.858  0.6394  0.8155 -0.1671
18955THY    CM161191   2.968   7.015   2.883 -0.0564 -0.5412 -0.1142
18955THY    HM161192   2.967   7.068   2.787 -3.0091  0.1849  1.3758
18955THY    HM261193   3.047   7.065   2.940  0.4430 -0.4609 -0.9888
18955THY    HM361194   2.868   7.019   2.928  0.1057 -0.1668 -0.2298
18955THY    CA661195   3.031   6.827   2.727 -0.0020 -0.2530  0.2696
18955THY    HA661196   3.030   6.898   2.645  0.3405  0.5174  1.1875
18956THY      O61197   8.586   2.697   3.362 -0.5603 -0.4944 -0.1170
18956THY     HO61198   8.579   2.613   3.410 -0.4175  0.9423  0.6598
18956THY    CA161199   8.666   2.673   3.259  0.4310  0.0656  0.9311
18956THY    CA261200   8.631   2.695   3.125  0.4740  0.0102 -0.0135
18956THY    CP161201   8.494   2.753   3.094 -0.8380 -0.1692  0.2265
18956THY    HP161202   8.437   2.780   3.184 -0.3955 -0.0874  0.9137
18956THY    CP261203   8.414   2.644   3.019  0.6932 -0.4046 -0.4287
18956THY    HP261204   8.391   2.566   3.092 -0.2260 -1.1062 -0.8334
18956THY    HP361205   8.479   2.601   2.942  2.0490  1.1291 -1.2041
18956THY    HP461206   8.327   2.695   2.976  0.8264 -0.1963 -0.0213
18956THY    CP361207   8.496   2.881   3.009 -0.0252 -0.0825 -0.0477
18956THY    HP561208   8.405   2.941   3.020  0.7509 -3.8877  2.1748
18956THY    HP661209   8.524   2.861   2.904  0.0203  0.1029 -1.0017
18956THY    HP761210   8.572   2.944   3.056 -0.2252  0.1754  0.0030
18956THY    CA361211   8.718   2.668   3.016  0.0811  0.9099  0.3577
18956THY    HA361212   8.705   2.694   2.911 -0.3279  0.8610 -0.0452
18956THY    CA461213   8.843   2.620   3.051  0.2460 -0.1895 -0.5598
18956THY    HA461214   8.919   2.597   2.977  2.4477  0.7795  2.8514
18956THY    CA561215   8.885   2.597   3.178  0.0898  0.0438 -0.8652
18956THY    CM161216   9.017   2.530   3.195  1.0572 -0.3377 -0.3399
18956THY    HM161217   9.012   2.424   3.224  2.1363  2.7905  0.3585
18956THY    HM261218   9.081   2.576   3.271  1.6335  0.1593 -1.8989
18956THY    HM361219   9.069   2.517   3.099  1.3640 -0.0723 -1.1221
18956THY    CA661220   8.795   2.620   3.286 -0.6378  0.4956  0.5972
18956THY    HA661221   8.827   2.600   3.388 -1.4086  0.7810  0.7920
18957THY      O61222   1.570   1.531   3.334 -0.0186  0.7541  0.4225
18957THY     HO61223   1.658   1.571   3.341 -1.6208 -1.1288  4.9482
18957THY    CA161224   1.591   1.403   3.290  0.1805  0.4843  0.1357
18957THY    CA261225   1.487   1.306   3.289 -0.2264  0.2731 -0.1605
18957THY    CP161226   1.344   1.346   3.305 -0.6859 -0.6803  0.1824
18957THY    HP161227   1.340   1.453   3.328 -1.0484 -1.0442  0.2480
18957THY    CP261228   1.282   1.273   3.424 -0.0889 -0.3078 -0.8106
18957THY    HP261229   1.265   1.167   3.402  0.6551 -2.3667 -0.5379
18957THY    HP361230   1.180   1.308   3.445  1.0264  0.8849  2.0603
18957THY    HP461231   1.347   1.271   3.512 -0.2371 -0.0755  1.6057
18957THY    CP361232   1.277   1.327   3.177  0.3501  0.3269 -0.0606
18957THY    HP561233   1.270   1.223   3.145  0.4712 -0.4808  0.1761
18957THY    HP661234   1.308   1.397   3.099  0.3269  1.5098  1.3100
18957THY    HP761235   1.169   1.345   3.187 -0.0464 -1.4504 -1.2465
18957THY    CA361236   1.528   1.171   3.269  0.0130  0.2556  0.6867
18957THY    HA361237   1.462   1.085   3.275  1.2638  1.3917 -0.2362
18957THY    CA461238   1.661   1.139   3.249 -0.4917  1.2955 -0.2294
18957THY    HA461239   1.692   1.037   3.230  0.3453 -0.7616  0.3624
18957THY    CA561240   1.749   1.241   3.219 -0.2506 -0.0877 -0.5406
18957THY    CM161241   1.893   1.202   3.189 -0.1453  0.1198 -0.0931
18957THY    HM161242   1.947   1.276   3.128 -0.0124  1.6149  1.0963
18957THY    HM261243   1.914   1.106   3.142  0.6744  0.8927 -0.3048
18957THY    HM361244   1.941   1.193   3.287  0.1999 -0.1706 -1.6753
18957THY    CA661245   1.719   1.372   3.256 -1.0778 -0.1699  0.4828
18957THY    HA661246   1.783   1.459   3.249 -0.3635  1.6722  0.1688
18958THY      O61247   3.139   6.466   5.356 -0.5763  0.1692  0.0620
18958THY     HO61248   3.186   6.519   5.422 -0.2318 -1.3237  1.6961
18958THY    CA161249   3.207   6.483   5.240  0.4938  0.3646 -0.6948
18958THY    CA261250   3.161   6.418   5.119  0.2994 -0.1883 -0.9208
18958THY    CP161251   3.025   6.347   5.116  0.7076 -0.3198  0.4614
18958THY    HP161252   2.963   6.400   5.189  0.6501 -0.6303  0.8315
18958THY    CP261253   3.036   6.192   5.155 -0.8755 -0.1351 -0.0652
18958THY    HP261254   3.108   6.131   5.099  0.4477  2.7006 -1.3142
18958THY    HP361255   2.938   6.145   5.143  0.8944 -1.0833 -3.8729
18958THY    HP461256   3.055   6.174   5.262 -0.7233 -0.2467 -0.5778
18958THY    CP361257   2.941   6.369   4.991  0.3465  0.3987  0.1341
18958THY    HP561258   2.835   6.341   5.002  0.1352 -2.0111 -0.2642
18958THY    HP661259   2.976   6.329   4.895  1.7582  1.4367 -1.2618
18958THY    HP761260   2.945   6.476   4.969  0.3678 -1.6700 -0.2581
18958THY    CA361261   3.253   6.421   5.011 -0.0322 -0.4511  0.6672
18958THY    HA361262   3.234   6.366   4.920 -0.8946  0.0247  0.1460
18958THY    CA461263   3.366   6.510   5.012 -0.2320 -0.2030 -0.2226
18958THY    HA461264   3.425   6.521   4.922 -0.7474 -0.9708 -2.8197
18958THY    CA561265   3.406   6.577   5.130 -0.5316  0.2624  0.1375
18958THY    CM161266   3.544   6.646   5.132 -0.1959  0.4021  0.5051
18958THY    HM161267   3.556   6.744   5.180 -0.4934  0.7573  0.3723
18958THY    HM261268   3.593   6.649   5.034 -0.4121  0.2704 -0.0954
18958THY    HM361269   3.615   6.586   5.189  1.6919 -0.7333  1.5504
18958THY    CA661270   3.322   6.568   5.239  0.0358 -0.5169  0.0846
18958THY    HA661271   3.352   6.616   5.332 -0.8033 -0.3017  0.2105
18959THY      O61272   7.308   7.237   4.726 -0.0020  0.4273  0.3079
18959THY     HO61273   7.260   7.214   4.644  2.3214 -1.3037  1.1955
18959THY    CA161274   7.228   7.204   4.829  0.4195 -0.2388  0.3427
18959THY    CA261275   7.263   7.213   4.962  0.4475  0.3026 -0.4945
18959THY    CP161276   7.406   7.263   4.993 -0.1574  0.3797  1.0514
18959THY    HP161277   7.476   7.262   4.909  1.0683  1.2312 -3.1867
18959THY    CP261278   7.491   7.163   5.073  0.2192 -0.0143  0.1246
18959THY    HP261279   7.583   7.189   5.127  0.6622 -0.0872 -1.2211
18959THY    HP361280   7.506   7.073   5.012 -0.4171 -0.3536  0.2454
18959THY    HP461281   7.431   7.136   5.160  1.6928  1.4759  1.4135
18959THY    CP361282   7.411   7.399   5.051  0.3008  0.2468 -0.4186
18959THY    HP561283   7.344   7.470   5.002  3.4886 -1.7159  1.4992
18959THY    HP661284   7.513   7.437   5.033 -0.6126 -0.7014  1.7355
18959THY    HP761285   7.388   7.391   5.158  1.4533  0.6689  1.3369
18959THY    CA361286   7.163   7.186   5.058  0.0908  0.0519 -0.4879
18959THY    HA361287   7.186   7.186   5.164  2.7684 -0.3771 -3.1437
18959THY    CA461288   7.041   7.143   5.016 -0.5183 -0.5853  0.4313
18959THY    HA461289   6.964   7.112   5.086 -0.7647 -1.3987 -0.8714
18959THY    CA561290   7.009   7.135   4.882  0.1181  0.4039  0.1239
18959THY    CM161291   6.870   7.091   4.839  0.1695 -0.0261 -0.3623
18959THY    HM161292   6.867   7.011   4.764 -0.1843  0.1077 -0.4716
18959THY    HM261293   6.822   7.179   4.795 -0.9827  0.8286 -0.5482
18959THY    HM361294   6.796   7.064   4.915 -1.4376 -1.3913  0.0242
18959THY    CA661295   7.106   7.158   4.786  0.4294 -0.1897  0.6897
18959THY    HA661296   7.077   7.148   4.682 -1.2852  0.1322  1.8925
18960THY      O61297   6.940   0.774   6.196 -0.3139  0.0700 -0.2398
18960THY     HO61298   7.029   0.754   6.230 -0.4491  0.6748  0.1684
18960THY    CA161299   6.858   0.708   6.276 -0.2670 -0.0937  0.2481
18960THY    CA261300   6.723   0.729   6.262  0.3015 -0.1202  0.0844
18960THY    CP161301   6.670   0.842   6.169  0.0827  0.6644  0.0329
18960THY    HP161302   6.744   0.910   6.124 -3.5071 -2.2912  2.4212
18960THY    CP261303   6.590   0.936   6.260 -0.0452  0.1554 -0.3706
18960THY    HP261304   6.511   0.889   6.321 -0.9299  0.5073  1.4840
18960THY    HP361305   6.549   1.024   6.210  3.2993 -1.2963  0.4980
18960THY    HP461306   6.663   0.979   6.328  1.1131 -2.2704  1.7373
18960THY    CP361307   6.574   0.790   6.066  0.6214  0.2259  0.0798
18960THY    HP561308   6.505   0.870   6.035  1.6654 -1.5616  0.3274
18960THY    HP661309   6.511   0.720   6.122  0.2486  0.6272  0.7263
18960THY    HP761310   6.619   0.747   5.976  1.3591  0.0479  1.1740
18960THY    CA361311   6.632   0.644   6.332 -1.0415  0.4772 -0.7782
18960THY    HA361312   6.525   0.656   6.323 -0.9506  0.0799 -0.2030
18960THY    CA461313   6.680   0.555   6.426  0.4798 -0.2124 -0.1864
18960THY    HA461314   6.603   0.500   6.479 -2.8697 -4.2492  0.1076
18960THY    CA561315   6.815   0.531   6.434  0.1746  1.0889 -0.5481
18960THY    CM161316   6.874   0.426   6.528 -0.6161  0.5509  0.5267
18960THY    HM161317   6.973   0.457   6.564 -0.8045  0.7076  0.9541
18960THY    HM261318   6.897   0.341   6.462  0.0897  0.4872  0.7582
18960THY    HM361319   6.809   0.401   6.612 -1.7490 -0.9635 -1.8775
18960THY    CA661320   6.905   0.609   6.361 -0.8104 -0.3423 -0.8134
18960THY    HA661321   7.011   0.588   6.356 -0.7478 -0.5648 -0.4513
18961THY      O61322   8.387   5.250   2.423 -0.1254 -0.0566  0.1703
18961THY     HO61323   8.395   5.255   2.519  1.9972 -0.2244  0.9461
18961THY    CA161324   8.281   5.323   2.389 -0.0316 -0.1342  0.5566
18961THY    CA261325   8.207   5.288   2.271  0.3949 -0.4422 -0.2066
18961THY    CP161326   8.261   5.183   2.167  0.6212  0.2556 -0.5353
18961THY    HP161327   8.330   5.113   2.217  0.5393  1.6342  0.3307
18961THY    CP261328   8.335   5.259   2.052 -0.1331 -0.4284 -0.0078
18961THY    HP261329   8.267   5.296   1.974 -0.0370 -1.6870 -2.3101
18961THY    HP361330   8.404   5.189   2.002 -1.6109 -0.1379 -1.7379
18961THY    HP461331   8.390   5.344   2.094  0.1595 -1.5639  0.3907
18961THY    CP361332   8.139   5.102   2.122 -0.2420  0.6991  0.3791
18961THY    HP561333   8.073   5.075   2.205 -0.2605  0.6187  0.1797
18961THY    HP661334   8.168   5.015   2.063  0.2054 -0.4266  1.2613
18961THY    HP761335   8.070   5.161   2.060  1.4352 -0.4181  1.2524
18961THY    CA361336   8.085   5.354   2.247  0.0183  0.2481 -0.6120
18961THY    HA361337   8.026   5.337   2.158 -0.6997  0.9139 -1.7666
18961THY    CA461338   8.033   5.447   2.345  0.2351  0.3423 -1.0893
18961THY    HA461339   7.934   5.491   2.337  0.2450  1.4007 -0.8321
18961THY    CA561340   8.100   5.466   2.464 -0.2969 -0.4071 -0.0774
18961THY    CM161341   8.056   5.572   2.559 -0.3354 -0.4022  0.0082
18961THY    HM161342   7.967   5.547   2.618 -0.4995 -0.1694  1.0906
18961THY    HM261343   8.039   5.660   2.495 -0.2232 -0.8566 -0.2971
18961THY    HM361344   8.123   5.613   2.635 -1.9257  0.6944  0.6821
18961THY    CA661345   8.226   5.403   2.486  0.4641  0.1001  0.3886
18961THY    HA661346   8.277   5.414   2.582 -1.6957  1.2939  0.6226
18962THY      O61347   6.356   3.098   3.501  0.0571 -0.1843  0.2212
18962THY     HO61348   6.429   3.130   3.446  1.0107  1.5038  1.0057
18962THY    CA161349   6.251   3.096   3.421 -0.0842  0.1204 -0.7969
18962THY    CA261350   6.121   3.127   3.468 -0.3416 -0.0939 -0.2356
18962THY    CP161351   6.099   3.165   3.610  0.1457 -0.3654 -0.1444
18962THY    HP161352   6.189   3.147   3.670  0.1808 -0.6341 -0.9114
18962THY    CP261353   5.984   3.091   3.672  0.0775 -0.2042 -0.0839
18962THY    HP261354   5.961   3.118   3.776  0.1040  0.1648 -1.4122
18962THY    HP361355   5.987   2.982   3.673 -2.8859 -1.6185 -0.3077
18962THY    HP461356   5.892   3.113   3.616 -0.3036  1.4337  3.1069
18962THY    CP361357   6.073   3.311   3.633  0.6200 -0.0292 -0.0768
18962THY    HP561358   6.059   3.329   3.740  1.4685  0.1606 -0.4917
18962THY    HP661359   5.991   3.345   3.569  1.0387  0.8407  2.9341
18962THY    HP761360   6.156   3.374   3.597  0.3885 -3.0857 -1.3564
18962THY    CA361361   6.014   3.150   3.381  0.3413  0.0670  0.3368
18962THY    HA361362   5.916   3.185   3.410  0.0018  0.4635 -0.9008
18962THY    CA461363   6.039   3.129   3.244  0.1266 -0.5511  0.1577
18962THY    HA461364   5.955   3.155   3.181  1.0257 -1.8187  0.0438
18962THY    CA561365   6.165   3.080   3.196  1.0104  0.1570  0.0838
18962THY    CM161366   6.191   3.052   3.049 -0.1155 -1.0356  0.3660
18962THY    HM161367   6.099   3.002   3.015 -1.0800  2.4801 -0.5864
18962THY    HM261368   6.282   2.992   3.032  1.2043  0.1497  1.9490
18962THY    HM361369   6.209   3.146   2.997 -2.3123 -1.8743  0.3913
18962THY    CA661370   6.270   3.060   3.282  0.7512 -0.4077 -0.4950
18962THY    HA661371   6.363   3.018   3.244  1.5062  2.4385 -1.5910
18963THY      O61372   1.572   1.088   4.246 -0.4504  0.9831  0.3471
18963THY     HO61373   1.581   1.003   4.294 -1.4056 -0.9184 -0.9005
18963THY    CA161374   1.483   1.164   4.317 -0.2945 -0.3208 -1.5495
18963THY    CA261375   1.454   1.299   4.278 -0.1949 -0.1773 -0.4317
18963THY    CP161376   1.534   1.366   4.162 -0.2586  0.1254  0.0308
18963THY    HP161377   1.562   1.297   4.081  1.0070  0.4778  0.1010
18963THY    CP261378   1.672   1.415   4.205 -0.1102  0.2633  0.0510
18963THY    HP261379   1.736   1.446   4.123  2.0104  0.2140 -3.8308
18963THY    HP361380   1.728   1.331   4.247  1.1700  1.4858  1.4477
18963THY    HP461381   1.664   1.484   4.290  1.7692 -0.5051  1.2755
18963THY    CP361382   1.482   1.481   4.078  0.3226  0.5077  0.6855
18963THY    HP561383   1.473   1.564   4.149 -0.2567  0.2408  0.8550
18963THY    HP661384   1.383   1.466   4.033  0.6068  0.8186 -2.9728
18963THY    HP761385   1.559   1.499   4.001  0.3311 -0.0937 -1.6075
18963THY    CA361386   1.355   1.367   4.345 -0.8572 -0.4423  0.2993
18963THY    HA361387   1.336   1.474   4.333  1.4230  1.3784  1.0247
18963THY    CA461388   1.284   1.299   4.452  0.0365 -0.7050 -0.1355
18963THY    HA461389   1.209   1.352   4.510 -0.4405 -0.2673 -1.2818
18963THY    CA561390   1.310   1.163   4.490 -0.5834 -0.5230  0.2238
18963THY    CM161391   1.230   1.095   4.601 -0.0239 -0.3860  0.6590
18963THY    HM161392   1.304   1.085   4.681  1.0912 -1.4998 -0.2638
18963THY    HM261393   1.183   1.003   4.565 -0.2468  0.7877  0.3001
18963THY    HM361394   1.149   1.166   4.624 -2.3787  1.0270 -2.2505
18963THY    CA661395   1.412   1.104   4.421  0.6308 -0.1071  0.8943
18963THY    HA661396   1.432   1.003   4.455  0.0010 -1.4417  0.3011
18964THY      O61397   2.140   1.424   2.729  0.2643  0.3808 -0.2190
18964THY     HO61398   2.094   1.398   2.648  1.0045 -0.3867  0.7763
18964THY    CA161399   2.272   1.434   2.694 -0.7305 -0.6222 -0.4097
18964THY    CA261400   2.354   1.543   2.730  0.3034  0.3104  0.3336
18964THY    CP161401   2.300   1.662   2.812 -0.2960 -0.9321 -0.3164
18964THY    HP161402   2.198   1.643   2.849  0.5902  1.3787 -0.9442
18964THY    CP261403   2.304   1.798   2.742 -0.1915 -0.0736 -0.6109
18964THY    HP261404   2.288   1.888   2.802 -0.7442 -0.1411 -0.6624
18964THY    HP361405   2.237   1.815   2.656 -1.7608  1.5561  2.2713
18964THY    HP461406   2.394   1.802   2.680 -1.3724 -1.9046 -1.1531
18964THY    CP361407   2.376   1.679   2.957 -0.0882  0.1227 -0.1975
18964THY    HP561408   2.360   1.775   3.007 -0.7586  0.1646 -0.3291
18964THY    HP661409   2.483   1.680   2.932  0.8401  3.4960 -1.5175
18964THY    HP761410   2.366   1.586   3.014  0.7930 -0.5296 -0.7073
18964THY    CA361411   2.488   1.541   2.686  0.2834 -0.1994  0.1367
18964THY    HA361412   2.547   1.627   2.714 -1.2226  1.3475  0.7310
18964THY    CA461413   2.538   1.434   2.613 -0.4976 -0.5015 -0.4849
18964THY    HA461414   2.643   1.440   2.589  0.2018  2.0102 -1.2503
18964THY    CA561415   2.455   1.325   2.583  0.4489 -0.3161  0.5028
18964THY    CM161416   2.511   1.196   2.513  0.4410 -0.1579  0.7611
18964THY    HM161417   2.604   1.220   2.461 -0.3541 -2.6817 -1.2706
18964THY    HM261418   2.438   1.147   2.449  0.6998  0.8667 -1.0435
18964THY    HM361419   2.536   1.120   2.588 -2.0830 -1.3515 -1.4064
18964THY    CA661420   2.323   1.328   2.621  0.1525  0.0766  0.6291
18964THY    HA661421   2.259   1.243   2.601  3.3012  0.6696 -2.0418
18965THY      O61422   8.955   7.407   2.506  0.1438  0.4555  0.3399
18965THY     HO61423   9.048   7.428   2.489 -0.5533 -1.8737  1.9910
18965THY    CA161424   8.914   7.310   2.424 -0.0360  0.6011  0.1646
18965THY    CA261425   8.778   7.289   2.413  0.4727 -0.1166  0.2348
18965THY    CP161426   8.683   7.352   2.514  0.4545 -0.2306  0.6714
18965THY    HP161427   8.739   7.394   2.598  2.8650 -1.6522  0.5624
18965THY    CP261428   8.578   7.260   2.576  0.4942  0.1985 -0.1575
18965THY    HP261429   8.627   7.182   2.637  0.5421 -0.6417 -0.7968
18965THY    HP361430   8.501   7.212   2.514 -0.1744  0.7005  0.2433
18965THY    HP461431   8.523   7.328   2.642 -2.1815 -3.9739  2.1517
18965THY    CP361432   8.604   7.461   2.450  0.1343  0.0245  0.1857
18965THY    HP561433   8.545   7.515   2.526 -0.5697  0.0019 -0.5303
18965THY    HP661434   8.526   7.424   2.382 -0.6262  1.1465 -0.3327
18965THY    HP761435   8.663   7.524   2.383  0.4664 -0.4570 -0.6182
18965THY    CA361436   8.732   7.190   2.327 -0.4207 -0.1950 -0.5286
18965THY    HA361437   8.627   7.165   2.335 -1.1899 -1.0519  2.0428
18965THY    CA461438   8.822   7.130   2.233 -0.5192 -0.1751 -0.0631
18965THY    HA461439   8.797   7.051   2.163 -0.0339 -1.2488  0.7057
18965THY    CA561440   8.959   7.163   2.235 -0.5107  0.4458 -0.2664
18965THY    CM161441   9.055   7.112   2.134  0.2852  0.2696 -0.0682
18965THY    HM161442   9.159   7.122   2.167  0.2925  1.1501 -2.4026
18965THY    HM261443   9.034   7.168   2.043 -1.3103  1.8287  2.0249
18965THY    HM361444   9.044   7.013   2.087 -0.3337 -2.3205  1.1650
18965THY    CA661445   9.003   7.260   2.326 -0.5015 -0.7212  0.0719
18965THY    HA661446   9.106   7.294   2.326 -0.5173  0.6384  0.1589
18966THY      O61447   0.820   8.693   3.743  0.3930 -0.1071 -0.0827
18966THY     HO61448   0.730   8.720   3.770  0.7253 -1.2747  2.5771
18966THY    CA161449   0.827   8.559   3.724  0.4665  0.8586  0.0640
18966THY    CA261450   0.949   8.494   3.724  0.0828  0.3541 -0.5675
18966THY    CP161451   1.077   8.582   3.747 -0.0751 -0.2020 -0.5145
18966THY    HP161452   1.053   8.677   3.795 -2.2054  0.7709 -1.4764
18966THY    CP261453   1.129   8.621   3.604  0.6084  0.7141 -0.0122
18966THY    HP261454   1.114   8.536   3.537  3.6198  1.3359 -1.1733
18966THY    HP361455   1.236   8.644   3.598  0.6015  1.3543  0.2132
18966THY    HP461456   1.075   8.701   3.551  0.7441  0.6533  0.0402
18966THY    CP361457   1.179   8.515   3.838 -0.0612  0.3618 -0.4659
18966THY    HP561458   1.204   8.415   3.800  0.6719  0.9887 -0.5337
18966THY    HP661459   1.142   8.497   3.940 -0.5761  0.6327  1.8614
18966THY    HP761460   1.271   8.573   3.852 -0.8824  2.5995  0.3761
18966THY    CA361461   0.955   8.357   3.696 -0.3233  0.4432  0.7491
18966THY    HA361462   1.045   8.297   3.685 -3.4633  0.0600 -4.5954
18966THY    CA461463   0.839   8.289   3.670 -0.2371  0.0232  0.0992
18966THY    HA461464   0.840   8.186   3.635 -2.8372  0.5633 -0.1834
18966THY    CA561465   0.716   8.355   3.683 -0.0382  0.3177  0.5834
18966THY    CM161466   0.589   8.273   3.654 -0.2100  0.1891 -0.1823
18966THY    HM161467   0.608   8.231   3.554  0.9787 -0.7642  2.4294
18966THY    HM261468   0.491   8.319   3.673 -0.0521  0.4517  0.0439
18966THY    HM361469   0.588   8.196   3.732 -0.8194  0.8504  0.4902
18966THY    CA661470   0.707   8.491   3.701 -0.1282  0.4270  0.0766
18966THY    HA661471   0.617   8.549   3.680  0.6889 -0.7997  0.9468
18967THY      O61472   0.683   5.477   7.142  0.0151  0.3729  0.0264
18967THY     HO61473   0.755   5.412   7.153 -0.9188 -1.4161 -1.3929
18967THY    CA161474   0.630   5.438   7.022 -0.2370 -0.0660 -0.0465
18967THY    CA261475   0.508   5.477   6.982  0.9718  0.3998  0.4669
18967THY    CP161476   0.418   5.554   7.076 -0.1075  0.6251  0.5436
18967THY    HP161477   0.462   5.555   7.176 -0.3416  0.8595 -2.3755
18967THY    CP261478   0.284   5.490   7.092  0.1685  0.1279 -0.0803
18967THY    HP261479   0.309   5.387   7.119 -1.8491 -0.7510 -0.8384
18967THY    HP361480   0.220   5.496   7.003 -3.0758  2.3994  2.8041
18967THY    HP461481   0.232   5.534   7.178 -0.1564  0.3474 -0.8858
18967THY    CP361482   0.408   5.698   7.029  0.4455 -0.8627  0.0355
18967THY    HP561483   0.342   5.710   6.942  0.3408 -0.9481 -1.0803
18967THY    HP661484   0.507   5.745   7.026  0.6642 -3.0198 -0.4386
18967THY    HP761485   0.343   5.748   7.102 -0.1040  0.4474 -2.4613
18967THY    CA361486   0.462   5.444   6.852 -0.5679 -0.2106  0.3701
18967THY    HA361487   0.367   5.485   6.819 -0.7304  1.9094  1.8734
18967THY    CA461488   0.543   5.357   6.769 -0.0621 -0.6019  0.9633
18967THY    HA461489   0.510   5.326   6.670 -0.1918  0.5756 -3.3713
18967THY    CA561490   0.667   5.318   6.815 -0.0160 -0.4830  0.8441
18967THY    CM161491   0.758   5.240   6.735  0.0263  0.3319  0.2923
18967THY    HM161492   0.781   5.154   6.798  1.0213 -0.6032 -0.1548
18967THY    HM261493   0.844   5.303   6.709 -1.1770 -1.3077  1.3447
18967THY    HM361494   0.703   5.197   6.651 -2.7339  1.1906  1.8889
18967THY    CA661495   0.708   5.359   6.940 -0.7205 -0.5673  0.5682
18967THY    HA661496   0.801   5.322   6.982 -1.8209  1.3246 -0.1976
18968THY      O61497   1.095   5.723   5.523  0.3836 -0.5110  0.2730
18968THY     HO61498   1.181   5.766   5.510  0.5057 -2.1523 -0.3836
18968THY    CA161499   1.018   5.778   5.626 -0.1190  0.3376  0.0366
18968THY    CA261500   0.891   5.733   5.651 -0.0663  0.1912  0.0812
18968THY    CP161501   0.818   5.629   5.566 -0.1674  0.0338 -0.3397
18968THY    HP161502   0.880   5.620   5.476  1.6793  1.2766 -0.8257
18968THY    CP261503   0.679   5.682   5.524 -0.3186  0.2015 -0.3127
18968THY    HP261504   0.692   5.786   5.491  4.1032  1.9756 -0.0743
18968THY    HP361505   0.600   5.663   5.598 -0.2023  0.6107  0.7337
18968THY    HP461506   0.641   5.625   5.439 -2.3274 -1.1064  2.6712
18968THY    CP361507   0.806   5.488   5.634  0.8216 -0.0129 -0.4176
18968THY    HP561508   0.704   5.457   5.660  0.8658 -0.3521 -0.8460
18968THY    HP661509   0.863   5.493   5.727  0.5520  0.2693 -2.0555
18968THY    HP761510   0.849   5.409   5.572 -0.6953  1.3772 -2.4199
18968THY    CA361511   0.812   5.786   5.753 -0.4195 -0.8485  0.2120
18968THY    HA361512   0.713   5.745   5.771  0.4229 -1.8807 -2.4666
18968THY    CA461513   0.870   5.880   5.839 -0.0686 -0.1446 -0.7740
18968THY    HA461514   0.815   5.917   5.925  2.1660  1.2733 -0.5951
18968THY    CA561515   1.000   5.928   5.820 -0.0626  0.1260  0.5828
18968THY    CM161516   1.053   6.042   5.895 -0.0372 -0.1658  0.6651
18968THY    HM161517   1.108   6.001   5.981 -0.1064 -0.2627  0.3675
18968THY    HM261518   0.965   6.097   5.931 -1.4913 -2.7132  0.1561
18968THY    HM361519   1.121   6.105   5.837 -1.3640 -0.4985  1.8344
18968THY    CA661520   1.070   5.881   5.705 -0.2761 -0.6348  0.9048
18968THY    HA661521   1.167   5.919   5.675  0.7576  0.5388 -0.6813
18969THY      O61522   0.852   7.768   5.090  0.0829 -0.1413 -0.3859
18969THY     HO61523   0.846   7.730   5.001 -1.8549  0.9466 -2.8975
18969THY    CA161524   0.763   7.697   5.168  0.2129  0.1369  0.1804
18969THY    CA261525   0.712   7.751   5.289  0.5069 -0.6032 -0.4945
18969THY    CP161526   0.747   7.890   5.329 -0.2218 -0.2393 -0.0135
18969THY    HP161527   0.820   7.938   5.263  0.0839 -0.2544 -0.4875
18969THY    CP261528   0.814   7.886   5.466  0.5125 -0.3554  0.4022
18969THY    HP261529   0.907   7.830   5.449 -0.0321 -0.9754 -0.3460
18969THY    HP361530   0.756   7.825   5.536  0.7733 -2.1122 -2.0479
18969THY    HP461531   0.833   7.987   5.503  1.0775  0.7605 -0.1033
18969THY    CP361532   0.625   7.979   5.354 -0.2716  0.6780  0.1330
18969THY    HP561533   0.578   8.003   5.258  1.1890 -0.1655 -0.2407
18969THY    HP661534   0.652   8.079   5.389 -0.8951  0.6360  0.3197
18969THY    HP761535   0.561   7.927   5.426 -0.7937  0.0029 -0.1878
18969THY    CA361536   0.618   7.678   5.374 -0.3311  0.8395 -0.5303
18969THY    HA361537   0.584   7.704   5.474 -0.5906  0.3889  0.9885
18969THY    CA461538   0.582   7.559   5.318  0.2516  0.6328  0.8833
18969THY    HA461539   0.514   7.502   5.380  0.2849 -0.7862 -0.7840
18969THY    CA561540   0.649   7.496   5.209 -0.1438 -0.0343  0.3539
18969THY    CM161541   0.620   7.345   5.180  0.3495 -0.1056 -0.3700
18969THY    HM161542   0.531   7.319   5.240 -0.2201  0.3726  2.4147
18969THY    HM261543   0.694   7.275   5.220  1.6015 -2.9521 -0.7835
18969THY    HM361544   0.604   7.331   5.073 -2.7481  0.0189  1.2882
18969THY    CA661545   0.733   7.568   5.128 -0.5297  0.2533  0.1015
18969THY    HA661546   0.766   7.523   5.035 -0.4368 -0.0915  0.8665
18970THY      O61547   8.966   9.402   2.020 -0.3870 -0.3143 -0.0484
18970THY     HO61548   8.884   9.439   1.982  1.1920 -1.8354  2.1585
18970THY    CA161549   8.954   9.273   2.061 -0.8635 -0.3046 -0.4207
18970THY    CA261550   9.065   9.207   2.111 -0.0741 -0.2402 -0.9695
18970THY    CP161551   9.190   9.287   2.156  0.6328 -0.5479 -0.7376
18970THY    HP161552   9.147   9.387   2.171 -0.5882 -0.1530 -1.3086
18970THY    CP261553   9.296   9.293   2.055 -0.5003  0.4437  0.0083
18970THY    HP261554   9.322   9.189   2.031  2.8927 -0.3704  0.9133
18970THY    HP361555   9.388   9.352   2.067 -1.1141 -1.2430  1.3966
18970THY    HP461556   9.252   9.337   1.965 -0.6895  0.1361 -0.7965
18970THY    CP361557   9.246   9.235   2.290  0.0143 -0.2350  0.0727
18970THY    HP561558   9.167   9.222   2.365  1.6821  1.4746 -0.7347
18970THY    HP661559   9.301   9.320   2.333  0.2736 -0.1840 -0.1210
18970THY    HP761560   9.301   9.140   2.284 -1.4297 -0.8715 -0.7488
18970THY    CA361561   9.063   9.068   2.125 -0.2123  0.5098 -0.5850
18970THY    HA361562   9.149   9.013   2.160  0.7750 -0.0125  0.5722
18970THY    CA461563   8.953   8.997   2.093 -0.0935  0.2530 -0.4675
18970THY    HA461564   8.951   8.889   2.101 -1.7376 -0.1006 -0.4916
18970THY    CA561565   8.837   9.060   2.050  0.2233  0.9549  0.2088
18970THY    CM161566   8.712   8.989   2.035 -0.3115 -0.5722 -0.3341
18970THY    HM161567   8.621   9.049   2.042 -1.0152  0.4391 -1.4584
18970THY    HM261568   8.710   8.899   2.099  2.2284 -0.2361 -0.2148
18970THY    HM361569   8.702   8.951   1.932 -0.0240 -0.5015 -0.6035
18970THY    CA661570   8.838   9.197   2.031 -0.0115 -0.0586  0.2813
18970THY    HA661571   8.744   9.240   1.995  0.0767 -0.1205  0.4221
18971THY      O61572   0.992   3.590   7.372 -0.1798 -0.1355 -0.4865
18971THY     HO61573   1.078   3.632   7.389 -1.2035  0.1775  1.6102
18971THY    CA161574   1.023   3.460   7.353 -0.4224  0.4486 -0.3668
18971THY    CA261575   0.938   3.372   7.290 -0.1191  0.6060 -0.4171
18971THY    CP161576   0.791   3.406   7.254 -0.7032  0.0513  0.6590
18971THY    HP161577   0.751   3.497   7.299 -2.5863  0.7218 -0.4660
18971THY    CP261578   0.703   3.302   7.319  0.2371  0.1787 -0.1600
18971THY    HP261579   0.600   3.336   7.305 -0.2073  2.6761 -0.2869
18971THY    HP361580   0.718   3.298   7.428 -1.4359  0.4263 -0.5600
18971THY    HP461581   0.710   3.201   7.279  0.9475  1.6373 -0.7280
18971THY    CP361582   0.762   3.394   7.098  0.0786  0.4601  0.3832
18971THY    HP561583   0.810   3.482   7.053  1.7136  0.7374 -0.3234
18971THY    HP661584   0.653   3.396   7.087  0.1014  0.2150  0.2846
18971THY    HP761585   0.800   3.306   7.045 -0.4378  0.6539  0.0381
18971THY    CA361586   0.979   3.238   7.274 -0.1664 -0.8919  0.2525
18971THY    HA361587   0.926   3.158   7.223  1.6295  0.7477 -2.1097
18971THY    CA461588   1.109   3.203   7.307  0.7053  0.7282  0.3713
18971THY    HA461589   1.144   3.102   7.287 -0.7100  1.6726 -0.3323
18971THY    CA561590   1.189   3.284   7.387 -0.3733  0.1373 -0.2303
18971THY    CM161591   1.333   3.251   7.410 -0.4366 -0.2369 -0.0748
18971THY    HM161592   1.350   3.277   7.515  0.0214 -0.3478  0.0883
18971THY    HM261593   1.397   3.310   7.344  1.6695 -0.5499 -2.5521
18971THY    HM361594   1.356   3.144   7.397  0.3085 -0.0473  0.0543
18971THY    CA661595   1.146   3.417   7.408  0.5415  0.9832 -0.0395
18971THY    HA661596   1.204   3.491   7.463 -1.7820  1.0742  1.8795
18972THY      O61597   1.096   1.945   4.871  0.0682  0.3139  0.2264
18972THY     HO61598   1.175   1.892   4.890  0.7347  0.0254  1.0857
18972THY    CA161599   1.079   1.940   4.740  0.2351 -0.1872 -0.0029
18972THY    CA261600   1.003   2.034   4.669 -0.0747  0.0054  0.4913
18972THY    CP161601   0.936   2.153   4.743  0.2091  0.3665 -0.2593
18972THY    HP161602   1.008   2.181   4.821 -1.1593  1.3899  0.5544
18972THY    CP261603   0.809   2.105   4.817  0.1430  0.4949  0.2930
18972THY    HP261604   0.818   2.003   4.857  1.6471  1.1429  0.6569
18972THY    HP361605   0.725   2.109   4.747  0.6572 -0.1378  0.2368
18972THY    HP461606   0.787   2.159   4.910  0.8746  0.1888  1.1429
18972THY    CP361607   0.908   2.269   4.659 -0.4576 -0.2363 -0.2177
18972THY    HP561608   0.995   2.281   4.595  0.4127  0.7663 -1.0585
18972THY    HP661609   0.906   2.361   4.719  0.7857  0.6164 -0.7272
18972THY    HP761610   0.820   2.267   4.593 -1.1659  0.5796  1.3336
18972THY    CA361611   0.973   2.000   4.533  0.3208  0.0119  0.2298
18972THY    HA361612   0.918   2.067   4.468  2.4935  0.0254  2.1677
18972THY    CA461613   1.035   1.886   4.471  0.4162  0.1453 -0.8701
18972THY    HA461614   1.012   1.869   4.366  0.2991  0.4354 -2.6801
18972THY    CA561615   1.107   1.797   4.546 -0.1789 -0.3838 -0.1849
18972THY    CM161616   1.165   1.665   4.488 -0.0606 -0.0161  0.1211
18972THY    HM161617   1.119   1.570   4.519  0.7908  0.4012 -0.1741
18972THY    HM261618   1.269   1.653   4.523 -0.6036  1.4403 -0.6373
18972THY    HM361619   1.154   1.678   4.380 -0.4642  0.2644  2.6127
18972THY    CA661620   1.114   1.819   4.685 -0.3705 -0.2450  0.5816
18972THY    HA661621   1.172   1.744   4.738 -1.3684 -1.1587 -0.9032
18973THY      O61622   0.692   7.640   2.437  0.2983 -0.1905 -0.2174
18973THY     HO61623   0.684   7.544   2.454  0.2944 -0.2838 -0.2343
18973THY    CA161624   0.602   7.662   2.337  0.6070  0.1982  0.0970
18973THY    CA261625   0.528   7.779   2.330  0.6783 -0.0452  0.4766
18973THY    CP161626   0.564   7.899   2.414 -1.0643 -0.4135  0.1471
18973THY    HP161627   0.645   7.876   2.485 -1.1343  0.0691  1.3187
18973THY    CP261628   0.441   7.953   2.494 -0.4615 -0.1239  0.2888
18973THY    HP261629   0.355   7.975   2.430 -0.2580 -1.1625 -1.6993
18973THY    HP361630   0.468   8.047   2.545  2.1749 -0.7919 -0.0158
18973THY    HP461631   0.422   7.887   2.580 -1.8756 -0.6865 -0.0723
18973THY    CP361632   0.624   8.003   2.318 -0.1757 -0.2318  0.3959
18973THY    HP561633   0.551   8.029   2.241  0.0546 -0.5308  0.1729
18973THY    HP661634   0.708   7.956   2.265  1.1218  1.8616  0.2096
18973THY    HP761635   0.667   8.094   2.360 -0.0162 -2.6522  1.5174
18973THY    CA361636   0.418   7.791   2.235  0.8070  0.1007  0.2150
18973THY    HA361637   0.366   7.886   2.222  2.3113  0.2911  1.1069
18973THY    CA461638   0.391   7.677   2.149  0.7468 -0.8308  0.6377
18973THY    HA461639   0.308   7.689   2.079 -1.1267  1.2569  0.4335
18973THY    CA561640   0.479   7.568   2.150  0.9165 -0.3575  0.5536
18973THY    CM161641   0.458   7.445   2.064 -0.4178  0.1378  0.3765
18973THY    HM161642   0.350   7.436   2.049 -0.5810  1.0275  0.7099
18973THY    HM261643   0.501   7.355   2.111  1.5311  0.5130  1.4665
18973THY    HM361644   0.512   7.452   1.969  0.2378  0.5098  0.4126
18973THY    CA661645   0.579   7.562   2.248 -0.4707  0.1611 -0.2237
18973THY    HA661646   0.657   7.487   2.244  0.8922 -0.1799  1.1669
18974THY      O61647   3.732   7.069   7.452  0.8460  0.3968  0.4677
18974THY     HO61648   3.701   7.057   7.544  0.8550  0.4232  0.6320
18974THY    CA161649   3.673   7.185   7.414  0.0802  0.6082 -0.8293
18974THY    CA261650   3.701   7.235   7.285 -0.0624 -0.1804 -0.2127
18974THY    CP161651   3.801   7.148   7.200 -0.3968  0.1848  0.5432
18974THY    HP161652   3.802   7.040   7.220  0.2764 -1.3275  0.2351
18974THY    CP261653   3.951   7.196   7.227  0.4505 -0.3283  0.1051
18974THY    HP261654   3.957   7.304   7.210 -2.4092  1.5446  0.6797
18974THY    HP361655   4.021   7.156   7.153  2.0233  0.8901  0.4862
18974THY    HP461656   3.989   7.175   7.327  1.1219 -1.0450 -2.3575
18974THY    CP361657   3.773   7.161   7.047 -0.0786  0.5226 -0.6137
18974THY    HP561658   3.671   7.127   7.023 -0.2995 -1.3345  1.1909
18974THY    HP661659   3.851   7.118   6.983 -1.3892 -0.8109 -1.0930
18974THY    HP761660   3.760   7.268   7.025  0.4087 -1.5736 -0.9496
18974THY    CA361661   3.637   7.359   7.244 -0.2963 -0.7773 -0.1705
18974THY    HA361662   3.653   7.394   7.142 -0.1355 -0.5034  0.5706
18974THY    CA461663   3.556   7.423   7.338  0.4624  0.3284 -0.1637
18974THY    HA461664   3.502   7.510   7.302 -0.3049  1.6047 -0.0907
18974THY    CA561665   3.536   7.369   7.469 -0.2050  0.4367  0.4487
18974THY    CM161666   3.440   7.450   7.559 -0.6569 -0.2004  0.3761
18974THY    HM161667   3.486   7.522   7.628 -0.2084 -1.1052  0.9775
18974THY    HM261668   3.382   7.375   7.614 -1.7357 -3.6253 -1.5514
18974THY    HM361669   3.367   7.503   7.496  0.3035 -4.0086 -2.4362
18974THY    CA661670   3.602   7.249   7.512 -0.8594  0.8535  0.5028
18974THY    HA661671   3.585   7.195   7.604  0.1668 -0.1007 -1.5275
18975THY      O61672   1.003   7.390   6.095 -0.2444  0.2450 -0.5682
18975THY     HO61673   1.005   7.300   6.060 -0.9699 -2.1633  0.2743
18975THY    CA161674   0.874   7.417   6.132  0.2691 -0.3417  0.3390
18975THY    CA261675   0.843   7.502   6.241 -0.3049 -0.1806 -0.0470
18975THY    CP161676   0.955   7.576   6.321 -0.2365 -0.1331  0.1997
18975THY    HP161677   1.025   7.620   6.249 -2.8459 -1.8236  1.8163
18975THY    CP261678   1.034   7.480   6.411 -0.2601  0.4135  0.0034
18975THY    HP261679   0.953   7.451   6.480 -0.2614  0.7496  0.7666
18975THY    HP361680   1.110   7.535   6.468  0.5010 -0.3732 -0.2286
18975THY    HP461681   1.070   7.392   6.357  0.5119  0.4033  0.3147
18975THY    CP361682   0.900   7.690   6.416 -0.9575 -0.4426  0.0361
18975THY    HP561683   0.984   7.753   6.447 -2.5327  1.2786  1.3737
18975THY    HP661684   0.855   7.648   6.506 -1.8471 -0.5343  0.7793
18975THY    HP761685   0.823   7.755   6.372 -2.6715 -1.0653 -2.2975
18975THY    CA361686   0.708   7.509   6.281  0.3492  0.0495 -0.0917
18975THY    HA361687   0.689   7.567   6.371  3.7042  1.1382 -0.4874
18975THY    CA461688   0.603   7.454   6.207  0.9098  0.6690  0.1488
18975THY    HA461689   0.499   7.465   6.236  0.9996  0.6441  1.1147
18975THY    CA561690   0.642   7.368   6.096  0.4217 -0.2216 -0.5872
18975THY    CM161691   0.529   7.317   6.002 -0.0595 -0.0311 -1.5301
18975THY    HM161692   0.577   7.241   5.938  1.8776  0.0569 -0.4604
18975THY    HM261693   0.486   7.387   5.929 -0.6448 -0.3492 -2.2048
18975THY    HM361694   0.459   7.264   6.067  0.8115  0.3430 -2.2669
18975THY    CA661695   0.773   7.350   6.066  0.2071  0.0331 -0.0056
18975THY    HA661696   0.804   7.287   5.984  0.8600  0.4771 -0.2625
18976THY      O61697   1.520   6.807   7.656  0.8004  0.2182  0.2366
18976THY     HO61698   1.518   6.755   7.738  0.4220 -0.1691 -0.3734
18976THY    CA161699   1.415   6.758   7.584  0.3419 -0.7429 -0.5377
18976THY    CA261700   1.345   6.837   7.485 -0.2383 -0.4520  0.7076
18976THY    CP161701   1.405   6.974   7.451  0.3663  0.7712 -0.6287
18976THY    HP161702   1.501   6.998   7.498  1.9442 -2.7192  0.5638
18976THY    CP261703   1.310   7.084   7.495  0.3450 -0.0145  0.2687
18976THY    HP261704   1.216   7.074   7.440  0.4894 -0.0525 -1.0252
18976THY    HP361705   1.356   7.184   7.491  1.2556 -1.0305 -0.1636
18976THY    HP461706   1.275   7.066   7.597 -0.8620 -0.4293  0.1779
18976THY    CP361707   1.422   6.992   7.295 -0.4359 -1.1468 -0.6684
18976THY    HP561708   1.483   6.907   7.262 -0.7684  1.9371 -2.2485
18976THY    HP661709   1.465   7.091   7.277 -0.4359  1.1217 -0.2056
18976THY    HP761710   1.327   6.987   7.240 -2.1782  1.6048  0.1906
18976THY    CA361711   1.239   6.781   7.405  0.5908 -0.7092  0.7645
18976THY    HA361712   1.192   6.832   7.321  0.0199 -1.7016 -1.3204
18976THY    CA461713   1.186   6.655   7.444  0.0361  0.2579 -0.0371
18976THY    HA461714   1.103   6.607   7.393 -2.6886  2.4190  2.0247
18976THY    CA561715   1.261   6.583   7.538  1.0882 -0.2049 -0.0736
18976THY    CM161716   1.212   6.439   7.569 -0.8929 -0.1550  0.2092
18976THY    HM161717   1.210   6.370   7.483 -0.0076  1.2057 -1.6084
18976THY    HM261718   1.111   6.443   7.612 -1.1305 -0.7284  4.3727
18976THY    HM361719   1.284   6.392   7.636 -0.3626 -0.0937  1.1042
18976THY    CA661720   1.367   6.629   7.609 -0.1103 -0.4720 -0.1652
18976THY    HA661721   1.418   6.563   7.679 -1.3116  0.8855  0.3015
18977THY      O61722   2.444   5.548   1.910 -0.1757 -0.1511 -0.3735
18977THY     HO61723   2.463   5.465   1.957 -3.8816  3.2889  0.4297
18977THY    CA161724   2.512   5.647   1.975  0.4712  0.1231 -0.5927
18977THY    CA261725   2.541   5.773   1.920 -0.3105 -0.6058  0.0305
18977THY    CP161726   2.502   5.810   1.781 -0.0204 -0.3264  0.6154
18977THY    HP161727   2.418   5.748   1.747  1.2823 -1.0034 -0.8338
18977THY    CP261728   2.621   5.784   1.693 -0.3745  0.1175  0.6565
18977THY    HP261729   2.709   5.849   1.701  1.9817 -0.8794 -2.1495
18977THY    HP361730   2.589   5.793   1.589 -0.1141 -0.1701 -1.2657
18977THY    HP461731   2.642   5.676   1.694 -0.7724 -2.2672  0.5070
18977THY    CP361732   2.458   5.959   1.759  0.4893  0.0111  0.0577
18977THY    HP561733   2.382   5.991   1.831 -0.2640 -0.5374 -0.4707
18977THY    HP661734   2.404   5.962   1.664 -0.9112  0.6353 -2.6568
18977THY    HP761735   2.548   6.022   1.757  0.6316  0.7729 -0.1143
18977THY    CA361736   2.591   5.875   2.002 -0.2458  0.6616 -0.9240
18977THY    HA361737   2.620   5.970   1.959  0.4572  2.9911 -0.0111
18977THY    CA461738   2.638   5.837   2.130 -0.6202  0.3148  0.4661
18977THY    HA461739   2.697   5.907   2.189  0.9087 -0.8376  0.2025
18977THY    CA561740   2.626   5.711   2.177 -0.3486  0.3198  0.2648
18977THY    CM161741   2.689   5.682   2.314  0.0679  0.2182 -0.2476
18977THY    HM161742   2.648   5.749   2.391 -1.2023 -1.2972  0.7806
18977THY    HM261743   2.796   5.705   2.308  0.0056  0.1355  0.0221
18977THY    HM361744   2.686   5.580   2.356  0.4763  2.3694  0.5598
18977THY    CA661745   2.551   5.617   2.107 -0.1331 -0.1860 -0.6066
18977THY    HA661746   2.528   5.519   2.148  0.8851 -0.5535 -1.0185
18978THY      O61747   3.706   8.471   3.054 -0.2164  0.2908  0.3373
18978THY     HO61748   3.682   8.529   2.980 -2.5292  1.7423  1.3981
18978THY    CA161749   3.757   8.551   3.148  0.6244  0.0308 -0.2757
18978THY    CA261750   3.724   8.537   3.286  0.1489  0.0404 -0.3880
18978THY    CP161751   3.638   8.426   3.335 -0.1785 -0.3216 -0.3946
18978THY    HP161752   3.595   8.376   3.248  2.4653 -1.1004 -1.5014
18978THY    CP261753   3.523   8.462   3.429  0.1760 -0.1110 -0.5477
18978THY    HP261754   3.466   8.371   3.447 -1.6734 -1.7443  0.2258
18978THY    HP361755   3.457   8.539   3.389  0.3752  0.4133 -0.0995
18978THY    HP461756   3.563   8.488   3.528 -0.2376 -0.3328  1.0370
18978THY    CP361757   3.723   8.323   3.406  0.4659 -0.3314  0.3859
18978THY    HP561758   3.660   8.251   3.460  2.6307 -0.8564 -2.0664
18978THY    HP661759   3.784   8.372   3.483 -1.0343  1.5846 -0.5923
18978THY    HP761760   3.772   8.265   3.327 -2.2464  0.0720 -2.7690
18978THY    CA361761   3.771   8.633   3.377 -0.2249 -0.2618  0.1600
18978THY    HA361762   3.745   8.614   3.481  0.8158  0.3862  2.0301
18978THY    CA461763   3.848   8.735   3.321 -0.2300  0.4146 -0.0598
18978THY    HA461764   3.896   8.801   3.393  0.0319  1.6305 -1.5252
18978THY    CA561765   3.875   8.756   3.183  0.1452  0.0870  0.2337
18978THY    CM161766   3.981   8.860   3.136 -1.1375 -0.3173  0.1649
18978THY    HM161767   3.963   8.927   3.052 -1.3273 -0.4516 -0.0523
18978THY    HM261768   4.081   8.815   3.125 -1.9608  3.5883 -3.2657
18978THY    HM361769   4.015   8.925   3.218 -1.3548 -0.8574  0.9737
18978THY    CA661770   3.819   8.661   3.099  0.0086  0.8195  0.0801
18978THY    HA661771   3.848   8.668   2.995 -0.8180  0.4523 -1.4995
18979THY      O61772   0.932   8.874   3.164 -0.1227  0.2439 -0.4674
18979THY     HO61773   0.882   8.811   3.219  1.2064  2.0596  0.0122
18979THY    CA161774   0.953   8.983   3.247  0.5827 -0.1126  0.0380
18979THY    CA261775   0.995   9.107   3.192  0.3930 -0.9754  0.0650
18979THY    CP161776   1.016   9.120   3.042 -0.0682  0.4877 -0.1532
18979THY    HP161777   1.008   9.023   2.992 -0.9297  0.3316 -0.0148
18979THY    CP261778   1.151   9.189   3.012 -0.1138  0.1319  0.1157
18979THY    HP261779   1.163   9.199   2.904 -0.5284 -0.0660 -1.2366
18979THY    HP361780   1.235   9.137   3.059  0.7130  0.9324  2.0747
18979THY    HP461781   1.160   9.289   3.057  1.8854  0.6415 -0.2499
18979THY    CP361782   0.900   9.200   2.981 -0.2945 -0.5503 -0.1254
18979THY    HP561783   0.884   9.298   3.027  0.2259  0.6982 -0.6074
18979THY    HP661784   0.818   9.143   3.028 -0.3839  1.8001  1.7927
18979THY    HP761785   0.885   9.207   2.872  1.2675 -0.7134  1.1038
18979THY    CA361786   1.021   9.216   3.279 -0.3838  0.8093  0.5945
18979THY    HA361787   1.054   9.316   3.251  0.7914 -0.7033 -0.1742
18979THY    CA461788   1.006   9.189   3.417  0.2874 -0.1590 -0.3898
18979THY    HA461789   1.034   9.270   3.483 -0.9262 -1.4926  1.1975
18979THY    CA561790   0.967   9.065   3.473 -0.1471  0.5716  0.0275
18979THY    CM161791   0.968   9.036   3.616  0.6571 -0.3528  0.0508
18979THY    HM161792   1.028   9.110   3.669 -0.0173  0.3196  0.1258
18979THY    HM261793   1.005   8.934   3.635 -0.2665 -0.1885 -0.2634
18979THY    HM361794   0.872   9.028   3.667  1.8337  1.7724 -1.5755
18979THY    CA661795   0.940   8.959   3.383  0.4250  0.0232 -0.0381
18979THY    HA661796   0.903   8.864   3.421  0.6496  0.6477  0.1228
18980THY      O61797   3.853   3.196   2.324  0.2137 -0.1751 -0.1313
18980THY     HO61798   3.811   3.282   2.341 -2.7149  0.5701 -1.5955
18980THY    CA161799   3.740   3.120   2.326  0.0519 -0.1199 -0.2975
18980THY    CA261800   3.741   2.979   2.328  1.0419  0.3920 -0.6341
18980THY    CP161801   3.866   2.896   2.308 -0.2129 -0.1800  0.1643
18980THY    HP161802   3.953   2.922   2.370 -1.9229  2.1230  0.6153
18980THY    CP261803   3.887   2.911   2.157  0.3069 -0.6855  0.7977
18980THY    HP261804   3.815   2.851   2.099  0.2147 -1.9457  2.0771
18980THY    HP361805   3.989   2.875   2.141 -0.2539  0.3417 -1.4279
18980THY    HP461806   3.878   3.011   2.112  0.0407  0.4418  1.2896
18980THY    CP361807   3.859   2.749   2.338  0.1041 -0.1869 -0.2405
18980THY    HP561808   3.957   2.709   2.306  0.5109  1.1979 -0.3911
18980THY    HP661809   3.779   2.706   2.277  1.6878 -2.4139 -0.2333
18980THY    HP761810   3.852   2.722   2.444  0.1730 -0.5656 -1.8751
18980THY    CA361811   3.621   2.906   2.345  0.5029 -0.1375  0.0229
18980THY    HA361812   3.604   2.799   2.345 -2.5221  2.4482  0.3638
18980THY    CA461813   3.503   2.980   2.379 -0.0774 -0.0409  0.7053
18980THY    HA461814   3.408   2.928   2.381 -0.0942  0.5005  0.7528
18980THY    CA561815   3.507   3.122   2.375 -0.3211  0.0830  0.4897
18980THY    CM161816   3.381   3.197   2.396  0.0172 -0.1148 -0.1638
18980THY    HM161817   3.383   3.269   2.478  2.6213 -0.9744  0.8533
18980THY    HM261818   3.306   3.123   2.425  0.1583  1.1877  0.1869
18980THY    HM361819   3.350   3.249   2.304  0.5473 -1.6104 -2.3595
18980THY    CA661820   3.622   3.196   2.351  0.9724  0.0912  0.2132
18980THY    HA661821   3.614   3.305   2.351 -1.8607  0.3463  0.0906
18981THY      O61822   8.907   3.422   3.919  0.3573 -0.1799  0.2221
18981THY     HO61823   8.971   3.388   3.854  2.0974  0.2980  2.3515
18981THY    CA161824   8.793   3.425   3.849 -0.2984  0.2784 -0.0671
18981THY    CA261825   8.700   3.520   3.880  0.2235 -0.7425  0.0387
18981THY    CP161826   8.722   3.623   3.991  0.3389 -0.0890  0.0647
18981THY    HP161827   8.806   3.593   4.053  0.2829 -0.9511 -2.0141
18981THY    CP261828   8.613   3.607   4.087  0.0406 -0.2146  0.3500
18981THY    HP261829   8.635   3.683   4.163  3.0240 -0.1815 -0.4138
18981THY    HP361830   8.614   3.507   4.131  0.8790  1.1008  0.9077
18981THY    HP461831   8.512   3.614   4.044 -0.5471  0.4020 -2.9601
18981THY    CP361832   8.731   3.763   3.936 -0.1637  0.7364  0.0669
18981THY    HP561833   8.777   3.829   4.010 -0.7793 -0.3668  1.7946
18981THY    HP661834   8.633   3.809   3.921 -0.0892 -2.3247 -0.5385
18981THY    HP761835   8.777   3.767   3.836  0.7415  1.0839 -1.0881
18981THY    CA361836   8.582   3.532   3.805  0.0240 -0.0565 -0.0395
18981THY    HA361837   8.503   3.605   3.821 -0.2126 -1.2420 -0.0042
18981THY    CA461838   8.562   3.446   3.695 -0.1084  0.5156 -0.5379
18981THY    HA461839   8.472   3.460   3.636 -1.8032  3.1526  0.3934
18981THY    CA561840   8.665   3.355   3.659  0.3372  1.0006 -0.1598
18981THY    CM161841   8.659   3.268   3.530  0.2682 -0.2471 -0.4878
18981THY    HM161842   8.620   3.323   3.444 -1.0677  1.4561  1.3909
18981THY    HM261843   8.581   3.192   3.539 -2.0241 -0.2686  1.7559
18981THY    HM361844   8.755   3.219   3.510 -0.6781 -1.5945 -1.9100
18981THY    CA661845   8.775   3.342   3.739  0.4950 -0.8755 -0.2147
18981THY    HA661846   8.859   3.279   3.709  0.8049  1.4674 -1.0063
18982THY      O61847   8.271   7.297   5.484 -0.4758 -0.4259  0.6816
18982THY     HO61848   8.202   7.296   5.416  2.6474 -3.9554 -0.5576
18982THY    CA161849   8.231   7.383   5.577  0.3546  0.2954 -0.3119
18982THY    CA261850   8.309   7.488   5.627 -0.5747  0.5172  0.5881
18982THY    CP161851   8.449   7.504   5.577  0.6502 -0.1254  0.2714
18982THY    HP161852   8.456   7.469   5.473 -0.7465 -0.6938  1.5718
18982THY    CP261853   8.535   7.421   5.664  0.7473 -0.0212  0.8471
18982THY    HP261854   8.523   7.458   5.767 -1.5655 -0.5657  1.8094
18982THY    HP361855   8.643   7.422   5.647  0.7635 -0.0430 -0.3016
18982THY    HP461856   8.504   7.316   5.663  0.0575 -1.4122  1.0463
18982THY    CP361857   8.503   7.644   5.566 -0.7137 -0.2711 -0.1203
18982THY    HP561858   8.427   7.713   5.526  0.4287 -0.7781  0.8736
18982THY    HP661859   8.597   7.653   5.511  2.1661  3.5193 -3.5573
18982THY    HP761860   8.512   7.678   5.670  1.1157 -0.2633 -0.5553
18982THY    CA361861   8.247   7.580   5.718  0.5788  0.2130 -0.0077
18982THY    HA361862   8.309   7.662   5.751 -1.7107  1.2513  1.3915
18982THY    CA461863   8.121   7.557   5.764  0.3450  0.0973 -0.1347
18982THY    HA461864   8.066   7.621   5.832  0.1328 -0.4725  0.3025
18982THY    CA561865   8.047   7.444   5.722 -0.5969 -0.1464  0.6443
18982THY    CM161866   7.902   7.429   5.759 -0.0248 -0.4088 -0.4257
18982THY    HM161867   7.857   7.528   5.774  0.2001  1.0966 -0.5337
18982THY    HM261868   7.898   7.366   5.849  2.4996 -0.4420 -0.7524
18982THY    HM361869   7.847   7.362   5.691  0.2842  0.3026 -1.4274
18982THY    CA661870   8.105   7.356   5.628  0.1451 -0.2752  0.0858
18982THY    HA661871   8.037   7.278   5.598  1.0879 -0.0857 -0.8330
18983THY      O61872   1.802   2.495   6.688 -0.2011 -0.0123 -0.7918
18983THY     HO61873   1.839   2.527   6.604 -1.7141 -0.0259  1.0863
18983THY    CA161874   1.693   2.430   6.644  0.5905 -1.4723  0.4089
18983THY    CA261875   1.578   2.408   6.726  0.0952  0.7664 -0.1910
18983THY    CP161876   1.562   2.477   6.860 -0.0045 -0.2332  0.0833
18983THY    HP161877   1.659   2.490   6.910  0.4138 -1.2473  0.9849
18983THY    CP261878   1.485   2.394   6.975 -0.2167 -0.3712 -0.2888
18983THY    HP261879   1.475   2.458   7.063 -0.5976  1.0833 -2.2749
18983THY    HP361880   1.545   2.306   7.000 -1.4615 -2.5867 -1.8560
18983THY    HP461881   1.385   2.368   6.938 -1.5014  0.7557  2.6516
18983THY    CP361882   1.506   2.614   6.843 -0.7032 -0.2886 -0.1695
18983THY    HP561883   1.397   2.624   6.844 -0.6906 -0.4369 -0.0229
18983THY    HP661884   1.530   2.643   6.740  0.6807  0.0665  0.0261
18983THY    HP761885   1.553   2.689   6.909 -0.3707 -2.8384  2.0168
18983THY    CA361886   1.459   2.349   6.662  0.2784 -0.7971  0.0707
18983THY    HA361887   1.363   2.342   6.712  0.8265  0.6608  1.9626
18983THY    CA461888   1.463   2.300   6.528  0.3277 -0.2397  0.3111
18983THY    HA461889   1.383   2.249   6.476  1.5983 -0.4394 -1.5458
18983THY    CA561890   1.585   2.314   6.457  0.1063  0.1158 -0.8780
18983THY    CM161891   1.592   2.241   6.329 -0.5351  0.8463  0.5338
18983THY    HM161892   1.519   2.159   6.326 -2.1824 -2.0601  1.9598
18983THY    HM261893   1.692   2.196   6.320  1.0685  3.8232  3.1365
18983THY    HM361894   1.572   2.312   6.248  0.1005 -1.4266 -1.7174
18983THY    CA661895   1.697   2.382   6.516 -0.7023 -0.0126  0.0876
18983THY    HA661896   1.792   2.385   6.465  0.6943  2.0875 -2.7407
18984THY      O61897   7.773   3.364   2.637 -0.7162 -0.1893 -1.0197
18984THY     HO61898   7.843   3.303   2.607  0.2820 -0.8050  0.3715
18984THY    CA161899   7.812   3.371   2.767 -0.4253 -0.2553 -0.0899
18984THY    CA261900   7.802   3.493   2.828 -0.2296  0.0867  0.3448
18984THY    CP161901   7.769   3.614   2.748 -0.3653  0.0121 -0.1754
18984THY    HP161902   7.732   3.586   2.648  0.2155 -0.2630  0.0255
18984THY    CP261903   7.891   3.701   2.723  0.5569 -0.3151  0.5864
18984THY    HP261904   7.871   3.799   2.679 -0.4833 -0.9139  0.1220
18984THY    HP361905   7.966   3.648   2.662 -0.4465 -1.3691  0.3436
18984THY    HP461906   7.935   3.720   2.821  1.3008 -0.9721  2.4263
18984THY    CP361907   7.655   3.698   2.822 -0.1244 -0.3420  0.7833
18984THY    HP561908   7.623   3.777   2.753  0.5903 -2.5375 -0.7710
18984THY    HP661909   7.681   3.732   2.923 -2.3208  2.1256 -3.9792
18984THY    HP761910   7.566   3.637   2.837 -1.5163 -0.2701  2.7402
18984THY    CA361911   7.821   3.497   2.966  0.0997 -0.5240 -0.1044
18984THY    HA361912   7.810   3.584   3.030  0.2471 -0.2821 -0.2599
18984THY    CA461913   7.851   3.379   3.030 -1.1573  0.2615  0.4412
18984THY    HA461914   7.869   3.380   3.137 -0.0240  0.1458 -1.8002
18984THY    CA561915   7.862   3.257   2.964  0.6825  0.1235  0.6224
18984THY    CM161916   7.885   3.140   3.044 -0.1790  0.3935 -0.0877
18984THY    HM161917   7.860   3.149   3.150 -1.0109  0.3071 -1.0463
18984THY    HM261918   7.988   3.106   3.028  0.2779 -0.2471  1.5304
18984THY    HM361919   7.815   3.060   3.015 -0.9191  1.2331  0.2394
18984THY    CA661920   7.833   3.253   2.829 -0.1921 -0.2053  0.4215
18984THY    HA661921   7.834   3.162   2.770  0.3356 -0.8753  0.8472
18985THY      O61922   1.636   2.427   4.203  0.1524  0.0737 -0.6636
18985THY     HO61923   1.704   2.492   4.181 -2.3364  1.2885  2.5930
18985THY    CA161924   1.627   2.426   4.338 -0.1200 -0.6804 -0.3366
18985THY    CA261925   1.509   2.412   4.410 -0.1701  0.4826  0.2616
18985THY    CP161926   1.379   2.415   4.321  0.0418 -0.6047  0.2218
18985THY    HP161927   1.402   2.368   4.225  0.4466 -0.5348  0.2728
18985THY    CP261928   1.327   2.557   4.323 -0.0997 -0.1866  0.5258
18985THY    HP261929   1.297   2.595   4.422  1.8369  0.3939  0.6521
18985THY    HP361930   1.244   2.580   4.256  0.9833 -2.4244 -1.6859
18985THY    HP461931   1.398   2.628   4.278 -0.6270 -0.7735  0.6943
18985THY    CP361932   1.278   2.314   4.373  0.0677 -0.1107 -1.1398
18985THY    HP561933   1.311   2.216   4.410 -0.7879  2.6680 -0.4620
18985THY    HP661934   1.199   2.312   4.296  1.1327 -1.4919  2.1965
18985THY    HP761935   1.235   2.358   4.463  1.8818  0.3270 -0.1713
18985THY    CA361936   1.508   2.410   4.553  0.4572  0.6606 -0.0739
18985THY    HA361937   1.414   2.412   4.608 -0.6036 -1.0793  0.8951
18985THY    CA461938   1.622   2.435   4.614  0.7440 -0.4339  0.1702
18985THY    HA461939   1.623   2.438   4.722 -0.0622 -0.4019 -0.3857
18985THY    CA561940   1.743   2.441   4.547 -0.1994  0.2190 -0.2162
18985THY    CM161941   1.872   2.445   4.624  0.7119  0.1646 -0.4559
18985THY    HM161942   1.867   2.527   4.696 -1.1381  1.2762 -1.4797
18985THY    HM261943   1.958   2.450   4.556 -0.3821 -1.2965 -0.9460
18985THY    HM361944   1.887   2.353   4.682 -0.3504  0.7729 -0.2698
18985THY    CA661945   1.747   2.435   4.403 -0.1351 -0.6172 -0.2285
18985THY    HA661946   1.840   2.428   4.347  0.1112 -0.5125  1.7678
18986THY      O61947   7.470   6.506   3.957 -0.0053 -0.0298  0.3584
18986THY     HO61948   7.496   6.596   3.929  1.1636 -2.6221 -0.6680
18986THY    CA161949   7.533   6.487   4.069 -0.0779  0.1414  0.0181
18986THY    CA261950   7.572   6.366   4.112 -0.1228  0.0909  0.2570
18986THY    CP161951   7.528   6.238   4.039  0.1373  0.1267 -0.0002
18986THY    HP161952   7.520   6.251   3.930  1.4037 -0.3264 -2.3902
18986THY    CP261953   7.390   6.193   4.081  0.5251 -0.1344  0.3068
18986THY    HP261954   7.350   6.105   4.028 -1.8067  2.6296 -0.4505
18986THY    HP361955   7.327   6.282   4.070  1.2661  2.7049  1.2881
18986THY    HP461956   7.392   6.171   4.188 -2.2743  0.2510  1.5419
18986THY    CP361957   7.636   6.128   4.039  0.5698  0.2250  0.7988
18986THY    HP561958   7.645   6.068   4.130 -3.8227 -1.0206 -2.2443
18986THY    HP661959   7.729   6.170   3.999 -0.3375 -2.7854  0.1937
18986THY    HP761960   7.607   6.061   3.957  0.1856  0.5002  0.6209
18986THY    CA361961   7.619   6.351   4.242  0.1089 -0.8161  0.1794
18986THY    HA361962   7.652   6.259   4.289  0.4202  2.9009  1.9917
18986THY    CA461963   7.673   6.468   4.306 -0.4256  0.6730  0.1294
18986THY    HA461964   7.738   6.462   4.393  2.3429 -1.3135 -0.9227
18986THY    CA561965   7.659   6.594   4.255 -0.6356  0.3690 -0.3704
18986THY    CM161966   7.720   6.717   4.317 -0.5431 -0.5840 -0.0132
18986THY    HM161967   7.727   6.797   4.242  2.1958 -0.1686  0.2465
18986THY    HM261968   7.822   6.698   4.351 -0.6631  0.1360  0.5950
18986THY    HM361969   7.668   6.736   4.411 -0.6975 -0.5939 -0.3792
18986THY    CA661970   7.583   6.602   4.139  0.1144  0.1215 -0.4886
18986THY    HA661971   7.558   6.702   4.103  1.7714 -1.3894 -0.5560
18987THY      O61972   6.847   1.584   3.565  0.2362 -0.4569  0.2948
18987THY     HO61973   6.911   1.562   3.496  1.9155  1.6198 -1.8534
18987THY    CA161974   6.854   1.717   3.606  0.2575  0.1723 -0.3071
18987THY    CA261975   6.811   1.764   3.728  0.4360  0.1629 -0.1227
18987THY    CP161976   6.781   1.670   3.846  0.5750 -0.3563  0.3927
18987THY    HP161977   6.767   1.566   3.814  1.6057  0.7749 -0.1243
18987THY    CP261978   6.657   1.706   3.938 -0.6534  0.1741 -0.5955
18987THY    HP261979   6.667   1.799   3.994  0.1381 -0.1868 -0.4470
18987THY    HP361980   6.640   1.628   4.013  0.0637 -1.1871 -2.1475
18987THY    HP461981   6.565   1.722   3.880 -1.2171  1.6555  2.0598
18987THY    CP361982   6.908   1.664   3.931 -0.0331  0.1101  0.4272
18987THY    HP561983   6.928   1.762   3.976 -0.7572 -2.5529  1.9214
18987THY    HP661984   6.995   1.645   3.867 -0.8430 -1.7152  2.4118
18987THY    HP761985   6.913   1.592   4.013  1.5995  0.0235  0.4153
18987THY    CA361986   6.807   1.906   3.754  0.9602  0.2096  1.2031
18987THY    HA361987   6.773   1.953   3.845 -1.2815  0.8619 -1.4114
18987THY    CA461988   6.842   1.992   3.647 -0.5759 -0.4046  0.2124
18987THY    HA461989   6.829   2.099   3.661 -1.0406 -0.5987  0.1847
18987THY    CA561990   6.887   1.937   3.527 -0.1918  0.4144  0.0426
18987THY    CM161991   6.926   2.024   3.414 -0.8698  0.5679  0.0947
18987THY    HM161992   7.033   2.047   3.416 -0.6657 -1.2751 -0.5195
18987THY    HM261993   6.861   2.112   3.409 -1.4454 -0.3933 -0.3679
18987THY    HM361994   6.908   1.973   3.319  0.4288 -0.6535  1.8071
18987THY    CA661995   6.890   1.805   3.506 -0.1103  0.5356 -0.1392
18987THY    HA661996   6.918   1.769   3.407 -1.0566 -0.4934  1.8057
18988THY      O61997   1.765   0.570   4.810  0.0738  0.6229  0.4692
18988THY     HO61998   1.814   0.625   4.875  2.2170 -0.9536  0.5365
18988THY    CA161999   1.645   0.632   4.794 -0.5688 -0.4160  0.1539
18988THY    CA262000   1.547   0.571   4.709  0.9012  0.8686  0.3338
18988THY    CP162001   1.580   0.442   4.641  0.8845  0.3358  0.0414
18988THY    HP162002   1.682   0.405   4.654  0.3953  2.8740 -0.5595
18988THY    CP262003   1.537   0.443   4.489  0.6367 -0.1546 -1.0063
18988THY    HP262004   1.584   0.359   4.437  1.6922 -0.6610 -0.1286
18988THY    HP362005   1.580   0.533   4.443  0.5205 -0.6220 -1.1863
18988THY    HP462006   1.428   0.437   4.473  0.3442  1.5393 -0.7457
18988THY    CP362007   1.499   0.329   4.697 -0.0922  0.4494  0.6350
18988THY    HP562008   1.543   0.232   4.675  2.0405  1.7523  1.2422
18988THY    HP662009   1.398   0.322   4.654 -0.1101  0.8169 -1.9907
18988THY    HP762010   1.476   0.339   4.803  0.2531  0.5161  0.7234
18988THY    CA362011   1.429   0.645   4.682  0.2035  0.2191 -0.9065
18988THY    HA362012   1.362   0.601   4.608  0.0804  0.0869 -0.4992
18988THY    CA462013   1.410   0.769   4.755  0.6161  0.4099 -0.3409
18988THY    HA462014   1.319   0.826   4.740  1.8108  0.6375  1.7546
18988THY    CA562015   1.518   0.825   4.829 -0.5069 -0.1544  0.0909
18988THY    CM162016   1.508   0.957   4.899  0.4983  0.3351 -0.4570
18988THY    HM162017   1.605   1.004   4.918 -0.4383  0.3066  1.6086
18988THY    HM262018   1.455   0.942   4.994  1.8861  1.0310 -1.0559
18988THY    HM362019   1.462   1.023   4.824  3.6218 -1.8690 -0.5537
18988THY    CA662020   1.624   0.752   4.851 -0.4106 -1.1303  0.1798
18988THY    HA662021   1.707   0.784   4.913  1.8746 -4.0383  0.3055
18989THY      O62022   8.882   6.887   4.176 -0.2156  0.1873  0.2101
18989THY     HO62023   8.913   6.930   4.094 -0.2016 -1.1802 -2.2291
18989THY    CA162024   8.809   6.786   4.126 -0.2484  0.3033 -0.2221
18989THY    CA262025   8.801   6.663   4.182 -0.1630 -0.2325  0.0459
18989THY    CP162026   8.865   6.640   4.322 -0.2165  0.0561  0.3449
18989THY    HP162027   8.857   6.734   4.377 -1.3020  1.3232 -0.4468
18989THY    CP262028   9.024   6.620   4.305 -0.0672  0.1219 -0.1498
18989THY    HP262029   9.054   6.520   4.271 -1.3455 -0.0769 -0.4812
18989THY    HP362030   9.070   6.626   4.405 -0.9331  0.7473 -2.4695
18989THY    HP462031   9.068   6.690   4.234  0.4499 -0.0786 -0.6671
18989THY    CP362032   8.799   6.530   4.409  0.2435 -0.3034  0.0853
18989THY    HP562033   8.843   6.523   4.509 -0.7047  0.1291  0.1773
18989THY    HP662034   8.814   6.434   4.357 -0.1688 -0.4350  0.0897
18989THY    HP762035   8.692   6.545   4.424  0.2231 -1.0288  0.7441
18989THY    CA362036   8.733   6.553   4.119  0.7672 -0.6101  0.5237
18989THY    HA362037   8.737   6.452   4.159 -0.6632  1.2676  1.1647
18989THY    CA462038   8.670   6.574   3.994  0.3318 -0.2954  0.1689
18989THY    HA462039   8.624   6.497   3.932  1.2993 -0.9569  0.1038
18989THY    CA562040   8.679   6.704   3.938  1.2998 -0.0900  0.5991
18989THY    CM162041   8.627   6.730   3.800 -0.0349  0.9122  0.2363
18989THY    HM162042   8.646   6.823   3.745 -4.1921 -0.8541  0.2652
18989THY    HM262043   8.517   6.737   3.805 -0.0807  1.4475 -0.8086
18989THY    HM362044   8.641   6.650   3.727  1.1469 -2.3428  3.1149
18989THY    CA662045   8.747   6.804   4.004 -0.0197 -0.4130  0.7886
18989THY    HA662046   8.747   6.901   3.956  1.2921 -0.3384  0.8356
18990THY      O62047   8.281   5.687   3.601  0.1059 -0.3365  0.2841
18990THY     HO62048   8.268   5.675   3.505  0.5441 -0.3932  0.2504
18990THY    CA162049   8.382   5.612   3.640  0.7202  0.1893  0.2747
18990THY    CA262050   8.440   5.634   3.770  0.3068  0.2116  0.0904
18990THY    CP162051   8.384   5.741   3.866 -0.3615  0.1374  0.4714
18990THY    HP162052   8.290   5.779   3.824 -0.8570 -0.4239 -1.2771
18990THY    CP262053   8.484   5.852   3.875  0.4071  0.2398 -0.3880
18990THY    HP262054   8.445   5.934   3.936  0.7825  1.6989 -1.2668
18990THY    HP362055   8.497   5.887   3.772 -1.0698  0.0337 -0.3656
18990THY    HP462056   8.574   5.807   3.919 -0.3861 -0.1240 -2.4596
18990THY    CP362057   8.342   5.685   4.006  1.1533 -0.3215  0.1515
18990THY    HP562058   8.295   5.755   4.076  1.3028 -1.2917  1.2535
18990THY    HP662059   8.428   5.632   4.048 -0.8620  0.7730 -2.4750
18990THY    HP762060   8.271   5.605   3.982 -0.7552 -1.4708  2.0888
18990THY    CA362061   8.545   5.552   3.809  0.3832  0.3753  0.5059
18990THY    HA362062   8.597   5.559   3.904  0.5165  0.4525 -1.2214
18990THY    CA462063   8.603   5.458   3.720  0.5383 -0.1971 -0.8727
18990THY    HA462064   8.689   5.399   3.752  0.2299  1.1547 -0.5989
18990THY    CA562065   8.545   5.446   3.590  0.8909 -0.1773  0.3766
18990THY    CM162066   8.594   5.341   3.492  0.1076 -0.8825 -0.0830
18990THY    HM162067   8.681   5.374   3.434  2.0017  0.3442 -2.6236
18990THY    HM262068   8.515   5.297   3.429  0.1746  0.9664 -3.1210
18990THY    HM362069   8.639   5.258   3.547 -0.1267 -1.8154 -0.8359
18990THY    CA662070   8.429   5.514   3.558  0.8577  0.4026 -0.5225
18990THY    HA662071   8.390   5.494   3.459  0.1609  0.6787 -0.5495
18991THY      O62072   5.419   8.593   3.127  0.3334 -0.2419  0.1219
18991THY     HO62073   5.375   8.506   3.133  0.7405  0.7945 -0.0254
18991THY    CA162074   5.500   8.598   3.239 -0.0666  0.4372  0.1098
18991THY    CA262075   5.524   8.725   3.298 -0.5449 -0.3091  1.0884
18991THY    CP162076   5.453   8.849   3.245  0.1992 -0.0534  0.1093
18991THY    HP162077   5.355   8.817   3.209  1.1422 -0.9578 -1.9227
18991THY    CP262078   5.521   8.918   3.126  0.6188  0.0961 -0.9954
18991THY    HP262079   5.559   8.838   3.061  0.2009  1.2141 -2.1419
18991THY    HP362080   5.613   8.975   3.146  1.8103 -2.7656 -1.7278
18991THY    HP462081   5.453   8.985   3.073 -0.2616 -0.9862 -2.6714
18991THY    CP362082   5.426   8.957   3.346 -0.4552  0.6929  0.2361
18991THY    HP562083   5.527   8.996   3.363 -0.0460  0.0856 -0.5284
18991THY    HP662084   5.369   8.920   3.432 -1.5912 -1.2030 -2.8039
18991THY    HP762085   5.373   9.045   3.307  0.7818  0.5090  0.9154
18991THY    CA362086   5.629   8.738   3.393 -0.8061 -0.1330  0.1543
18991THY    HA362087   5.647   8.834   3.439 -2.1729  1.1882 -0.1816
18991THY    CA462088   5.686   8.621   3.443 -0.1176  0.2535 -0.8033
18991THY    HA462089   5.763   8.636   3.519  0.6706 -1.1238  3.2545
18991THY    CA562090   5.658   8.499   3.382  0.1577 -0.7382 -0.6149
18991THY    CM162091   5.722   8.377   3.432 -0.5517  1.0395 -0.1126
18991THY    HM162092   5.831   8.394   3.427 -0.3791  3.7313 -0.0257
18991THY    HM262093   5.699   8.294   3.364  0.4065  0.6410 -0.0735
18991THY    HM362094   5.700   8.347   3.535 -0.3540  1.6468  1.6997
18991THY    CA662095   5.571   8.489   3.277 -0.1746  0.2099 -0.0110
18991THY    HA662096   5.562   8.396   3.220  2.4269  2.3054 -1.6880
18992THY      O62097   2.318   2.615   7.936 -0.0606 -0.5027  0.1420
18992THY     HO62098   2.257   2.591   8.009 -0.1642 -0.6858 -0.1668
18992THY    CA162099   2.369   2.491   7.916 -0.4263 -0.0710 -0.3492
18992THY    CA262100   2.476   2.466   7.824  0.1051 -0.3680 -0.0852
18992THY    CP162101   2.546   2.576   7.741  0.0472  0.4622  0.3980
18992THY    HP162102   2.480   2.664   7.733 -1.6133 -2.6137 -0.9757
18992THY    CP262103   2.563   2.519   7.596 -0.4837 -0.0712 -0.1101
18992THY    HP262104   2.651   2.456   7.577 -1.3266 -2.0494 -0.7698
18992THY    HP362105   2.565   2.602   7.524  1.8944 -0.0639 -0.0841
18992THY    HP462106   2.473   2.460   7.576 -1.1769 -2.1351  1.4828
18992THY    CP362107   2.687   2.613   7.804  0.4363  0.2605 -0.0271
18992THY    HP562108   2.669   2.617   7.913 -1.2819  0.0075  0.0018
18992THY    HP662109   2.715   2.713   7.772 -1.2261  1.1900  0.7837
18992THY    HP762110   2.762   2.535   7.786 -0.3269 -0.6296 -0.5856
18992THY    CA362111   2.516   2.326   7.811  0.3759 -0.7160  0.1496
18992THY    HA362112   2.605   2.297   7.755  0.8052  0.5270 -1.0334
18992THY    CA462113   2.450   2.227   7.887  0.6884  0.3258  0.0742
18992THY    HA462114   2.473   2.123   7.867 -0.9612 -2.1481  0.0812
18992THY    CA562115   2.352   2.258   7.977 -0.1907 -0.3281 -0.2511
18992THY    CM162116   2.276   2.156   8.052  0.0065  0.3349  0.7590
18992THY    HM162117   2.269   2.178   8.159  2.1801  0.6041  0.3531
18992THY    HM262118   2.315   2.054   8.042 -0.5120  0.3667  0.5563
18992THY    HM362119   2.170   2.158   8.022  0.2747 -0.8563 -0.7776
18992THY    CA662120   2.312   2.390   7.991 -0.0901  0.7922  0.1582
18992THY    HA662121   2.224   2.406   8.054  0.6025  1.2096  2.9008
18993THY      O62122   1.582   4.389   5.974 -0.3828 -0.6492 -0.4215
18993THY     HO62123   1.509   4.325   5.979 -0.0206  1.2816 -0.7632
18993THY    CA162124   1.514   4.487   5.917  0.1923  0.0114  0.6458
18993THY    CA262125   1.538   4.623   5.936  0.2204  0.0415 -0.3185
18993THY    CP162126   1.660   4.677   6.017  0.7417  0.4446 -0.3271
18993THY    HP162127   1.689   4.612   6.100 -1.5318  1.6323  0.1071
18993THY    CP262128   1.656   4.820   6.083  0.2467  0.6828  0.4358
18993THY    HP262129   1.605   4.816   6.180 -0.3326  0.4488  1.6064
18993THY    HP362130   1.614   4.889   6.009  0.0252  0.1032 -0.3105
18993THY    HP462131   1.752   4.860   6.117  0.3062 -0.4004  1.2587
18993THY    CP362132   1.787   4.671   5.925 -1.0322  0.9179  0.5610
18993THY    HP562133   1.880   4.720   5.958  0.6088 -0.7044 -1.3151
18993THY    HP662134   1.761   4.716   5.828  2.2441 -1.2157 -1.6995
18993THY    HP762135   1.813   4.566   5.912 -1.4228  1.2412  0.4196
18993THY    CA362136   1.467   4.713   5.861  1.0311  0.0434 -0.4818
18993THY    HA362137   1.481   4.820   5.862  0.0698  1.4150 -0.3556
18993THY    CA462138   1.381   4.671   5.758  0.7089  0.1978 -0.2974
18993THY    HA462139   1.342   4.745   5.688  1.3536 -1.4145 -1.4278
18993THY    CA562140   1.367   4.533   5.736  0.5868  0.0914  0.1085
18993THY    CM162141   1.279   4.478   5.624  0.5725  0.0549 -0.1848
18993THY    HM162142   1.193   4.545   5.634  0.9275  3.0692 -0.0745
18993THY    HM262143   1.251   4.374   5.641 -0.2407  1.1859  0.2014
18993THY    HM362144   1.319   4.489   5.522 -0.3902 -0.1846  1.6148
18993THY    CA662145   1.431   4.443   5.820  0.3279  0.8217 -0.0180
18993THY    HA662146   1.423   4.340   5.787  2.0276 -1.0013  0.3719
18994THY      O62147   7.995   8.668   6.827 -0.1421  0.2062  0.7044
18994THY     HO62148   7.924   8.611   6.863 -0.9427 -1.5439  0.5329
18994THY    CA162149   8.017   8.641   6.700 -0.4696  0.0274 -0.0588
18994THY    CA262150   8.075   8.735   6.614  0.3060  0.3157  0.4921
18994THY    CP162151   8.103   8.882   6.661  1.3059  0.6773  0.1390
18994THY    HP162152   8.072   8.908   6.763  0.7655  0.1017  1.8962
18994THY    CP262153   8.027   8.986   6.577  0.5356  0.4266 -0.8870
18994THY    HP262154   8.032   9.087   6.619 -0.5460  2.5397 -1.6432
18994THY    HP362155   7.921   8.956   6.583 -0.8727 -0.0911  3.2681
18994THY    HP462156   8.057   8.970   6.473  0.2952  0.6050 -2.6963
18994THY    CP362157   8.241   8.922   6.643 -0.1629  0.0166 -0.9029
18994THY    HP562158   8.272   8.949   6.542 -1.1726 -1.2508 -4.0527
18994THY    HP662159   8.304   8.837   6.670  0.7209  0.8403 -0.0099
18994THY    HP762160   8.256   9.012   6.704  2.5853 -0.8689 -0.6889
18994THY    CA362161   8.092   8.700   6.482 -0.3421  0.5511  0.3204
18994THY    HA362162   8.139   8.773   6.417 -1.2075 -1.0781 -0.5022
18994THY    CA462163   8.043   8.575   6.423  0.6864  0.1380 -0.4717
18994THY    HA462164   8.053   8.556   6.317  0.4397  0.3624 -1.9761
18994THY    CA562165   7.973   8.488   6.503  0.5545  0.3535  0.3515
18994THY    CM162166   7.912   8.353   6.456  0.0631  0.7256 -1.2166
18994THY    HM162167   7.991   8.281   6.430 -1.1068 -2.5451 -1.5116
18994THY    HM262168   7.872   8.385   6.359 -1.5053  1.7498  0.1207
18994THY    HM362169   7.834   8.310   6.520  0.7156  2.3300 -0.1072
18994THY    CA662170   7.964   8.520   6.643  0.1608  0.0604  0.0745
18994THY    HA662171   7.908   8.455   6.710  1.4360  0.3420 -0.7692
18995THY      O62172   5.304   4.842   3.106  0.2364 -0.3257 -0.2905
18995THY     HO62173   5.400   4.851   3.108  0.2319  3.4898  0.6092
18995THY    CA162174   5.288   4.732   3.191  0.4236 -0.0945 -0.2838
18995THY    CA262175   5.176   4.719   3.276 -0.2511 -0.5376  0.3713
18995THY    CP162176   5.062   4.814   3.259 -0.4292 -0.1602  0.2851
18995THY    HP162177   5.101   4.908   3.219 -0.2209 -0.4166  0.0909
18995THY    CP262178   5.000   4.853   3.394 -0.3583  0.7287 -0.1285
18995THY    HP262179   4.966   4.772   3.459  0.9881  0.3371 -1.0602
18995THY    HP362180   4.927   4.935   3.392 -0.7217 -0.2427 -0.4601
18995THY    HP462181   5.082   4.906   3.444  0.8314 -1.0758 -0.1582
18995THY    CP362182   4.945   4.766   3.165  0.0141  0.0604 -0.0056
18995THY    HP562183   4.861   4.836   3.152 -1.2037 -0.0183 -1.4363
18995THY    HP662184   4.911   4.667   3.198  1.1732 -2.9976 -1.5507
18995THY    HP762185   4.984   4.742   3.066 -1.7175 -0.8287  0.7010
18995THY    CA362186   5.183   4.620   3.380  0.7402 -0.4649 -0.2350
18995THY    HA362187   5.093   4.603   3.438 -1.0363 -2.3843  1.9442
18995THY    CA462188   5.302   4.550   3.409 -0.8144 -0.7976 -0.0727
18995THY    HA462189   5.301   4.476   3.488  0.1392 -1.5226 -0.8914
18995THY    CA562190   5.409   4.568   3.326  0.0373  0.3504  0.0043
18995THY    CM162191   5.536   4.497   3.353 -0.3119  0.3218 -0.4171
18995THY    HM162192   5.529   4.432   3.441 -0.7984  1.4653  1.1356
18995THY    HM262193   5.626   4.560   3.357 -0.4610 -0.3624 -0.1561
18995THY    HM362194   5.555   4.422   3.276  0.7438  0.8763 -0.7453
18995THY    CA662195   5.402   4.659   3.222  0.1147  0.4900 -0.7530
18995THY    HA662196   5.489   4.669   3.158  0.8634  1.4408 -1.1093
18996THY      O62197   5.675   2.719   8.103  0.5725 -0.3848  0.2758
18996THY     HO62198   5.640   2.634   8.136  0.2636  0.3174  0.6669
18996THY    CA162199   5.675   2.706   7.969 -0.0109 -1.0334 -0.7756
18996THY    CA262200   5.677   2.809   7.876 -0.0647 -0.0286  0.0259
18996THY    CP162201   5.658   2.954   7.925 -0.1419  0.2709 -0.8340
18996THY    HP162202   5.713   2.957   8.020  0.8074 -0.2786  1.2781
18996THY    CP262203   5.513   2.981   7.961  0.0208 -0.6108  0.2631
18996THY    HP262204   5.461   2.959   7.867  1.2768 -1.1290 -0.6142
18996THY    HP362205   5.495   3.084   7.992 -3.1055  1.0662 -0.6607
18996THY    HP462206   5.476   2.911   8.037  1.8155 -0.2641 -0.3608
18996THY    CP362207   5.713   3.058   7.829  0.0437 -0.2023  0.5141
18996THY    HP562208   5.818   3.030   7.811 -0.6972 -1.7552 -1.5198
18996THY    HP662209   5.710   3.159   7.871 -1.5442  0.5421  0.1822
18996THY    HP762210   5.653   3.070   7.738 -0.7603  0.6295  4.0116
18996THY    CA362211   5.693   2.773   7.736 -0.2494 -0.1594  0.0721
18996THY    HA362212   5.716   2.845   7.659 -2.8035 -0.0550  1.0979
18996THY    CA462213   5.700   2.632   7.703 -0.1782  0.1524 -0.1051
18996THY    HA462214   5.722   2.603   7.600  0.3225  0.3743 -0.5377
18996THY    CA562215   5.680   2.531   7.798  0.0888  0.1442 -0.5659
18996THY    CM162216   5.681   2.390   7.750 -0.1328 -0.2219  0.4516
18996THY    HM162217   5.698   2.317   7.830 -1.8757  0.0104  0.2577
18996THY    HM262218   5.776   2.376   7.698  1.1031  2.1245 -0.4330
18996THY    HM362219   5.592   2.367   7.689 -0.3691 -0.1355  1.1119
18996THY    CA662220   5.670   2.572   7.937 -0.0674 -0.4420  0.1485
18996THY    HA662221   5.676   2.489   8.006 -0.8342 -0.7233 -0.1543
18997THY      O62222   7.385   7.600   6.519  0.0324 -0.3740 -0.6478
18997THY     HO62223   7.397   7.573   6.426 -1.2770 -0.8520  0.3244
18997THY    CA162224   7.444   7.721   6.529 -0.4109 -0.2122  0.0672
18997THY    CA262225   7.405   7.824   6.620  0.3325 -0.7548 -0.1039
18997THY    CP162226   7.298   7.796   6.725 -0.1250  0.1622 -0.1532
18997THY    HP162227   7.237   7.712   6.689 -1.1372 -0.6686  0.9055
18997THY    CP262228   7.204   7.912   6.754  0.4117  0.5231  0.2716
18997THY    HP262229   7.134   7.897   6.837 -1.7756 -0.9053  1.9131
18997THY    HP362230   7.146   7.933   6.663  0.1710  0.2800 -1.3067
18997THY    HP462231   7.260   8.003   6.776 -2.6147 -2.0836  3.0162
18997THY    CP362232   7.363   7.748   6.853 -0.5958 -0.4302 -0.3984
18997THY    HP562233   7.472   7.758   6.850 -0.4877 -0.5078 -1.4440
18997THY    HP662234   7.337   7.643   6.873  0.4665  2.7547 -0.1746
18997THY    HP762235   7.339   7.806   6.943 -0.4897 -2.4433  3.0041
18997THY    CA362236   7.469   7.946   6.608 -0.3463  0.3576 -0.3204
18997THY    HA362237   7.443   8.031   6.670  0.9023 -1.5403  1.5293
18997THY    CA462238   7.566   7.967   6.506  0.2416 -0.1324 -0.3213
18997THY    HA462239   7.612   8.065   6.505 -0.6983  1.5930  0.1809
18997THY    CA562240   7.608   7.867   6.433 -0.2734  0.4624  0.8114
18997THY    CM162241   7.709   7.891   6.327 -0.7580  0.0116 -0.2088
18997THY    HM162242   7.675   7.852   6.230 -0.2221 -0.1470 -0.2863
18997THY    HM262243   7.807   7.847   6.349  1.7795  2.2752  5.6371
18997THY    HM362244   7.729   7.997   6.310  0.1942 -0.7254 -0.4850
18997THY    CA662245   7.542   7.746   6.439 -0.3226 -0.1509 -0.3568
18997THY    HA662246   7.568   7.673   6.363  2.4012  0.6220 -0.3259
18998THY      O62247   2.036   4.228   1.729 -0.8354  0.6153  1.0339
18998THY     HO62248   2.021   4.140   1.693 -1.4106 -0.1981  1.4567
18998THY    CA162249   2.130   4.206   1.821 -0.1506  0.4086  0.4320
18998THY    CA262250   2.196   4.315   1.882 -0.2898 -0.1757 -0.1080
18998THY    CP162251   2.156   4.457   1.850  0.1336  0.2857  0.0642
18998THY    HP162252   2.097   4.457   1.758 -1.6040  1.3714 -0.4559
18998THY    CP262253   2.275   4.549   1.824  0.2027  0.2075 -0.0047
18998THY    HP262254   2.305   4.594   1.919 -1.2866  0.7837 -0.2067
18998THY    HP362255   2.241   4.639   1.771  0.4691 -1.7025 -0.9598
18998THY    HP462256   2.354   4.511   1.758 -1.7478 -3.0652  1.2186
18998THY    CP362257   2.059   4.512   1.954 -0.1576 -0.3617  0.1318
18998THY    HP562258   1.964   4.459   1.940  0.8753  1.0601 -2.2707
18998THY    HP662259   2.048   4.621   1.955 -1.1188  0.9581  0.0489
18998THY    HP762260   2.078   4.476   2.056  1.0635 -0.0050  1.6901
18998THY    CA362261   2.291   4.292   1.989 -0.3198  0.0653  0.1098
18998THY    HA362262   2.350   4.368   2.040 -0.0797 -0.0053 -0.0296
18998THY    CA462263   2.311   4.162   2.032 -0.2932  0.6634  0.0848
18998THY    HA462264   2.379   4.147   2.116  1.3148 -0.7794 -1.1110
18998THY    CA562265   2.242   4.058   1.965  0.3671  0.1616  0.5130
18998THY    CM162266   2.270   3.917   2.002 -0.2178  0.1025 -0.1946
18998THY    HM162267   2.278   3.851   1.915  0.7694  0.0829 -0.0637
18998THY    HM262268   2.186   3.877   2.060  0.5197  3.2541  2.3837
18998THY    HM362269   2.364   3.906   2.058  0.4687 -0.4574  2.2568
18998THY    CA662270   2.148   4.078   1.866  0.2633 -0.0614  0.5312
18998THY    HA662271   2.093   3.997   1.820  1.0133 -0.2369  0.1115
18999THY      O62272   5.279   8.520   4.035  0.8349 -0.1907 -0.0124
18999THY     HO62273   5.223   8.549   3.961  0.1425  0.8867  1.5107
18999THY    CA162274   5.398   8.582   4.025 -0.5378  0.6158  0.0337
18999THY    CA262275   5.488   8.589   4.134  0.0904 -0.2373  0.0536
18999THY    CP162276   5.439   8.549   4.278  0.1443 -0.3543  0.1092
18999THY    HP162277   5.372   8.462   4.272 -1.3110 -1.2953  1.2513
18999THY    CP262278   5.349   8.658   4.351 -0.1482 -0.1249 -0.1935
18999THY    HP262279   5.255   8.662   4.295  0.2644 -0.8090  0.0864
18999THY    HP362280   5.411   8.749   4.358  1.3584  1.0974 -1.2519
18999THY    HP462281   5.329   8.635   4.457 -0.2336 -0.2212 -0.5570
18999THY    CP362282   5.548   8.515   4.376  0.6856 -0.0325 -1.0351
18999THY    HP562283   5.620   8.457   4.318 -0.0766 -1.6702 -0.4017
18999THY    HP662284   5.507   8.455   4.458 -1.4921  0.5750  1.0957
18999THY    HP762285   5.593   8.604   4.422 -0.0273 -2.2738  0.5809
18999THY    CA362286   5.619   8.639   4.119 -0.2911  0.4477  0.8074
18999THY    HA362287   5.686   8.651   4.204 -0.6403  0.7157  0.8664
18999THY    CA462288   5.658   8.682   3.994 -0.3197  0.7563 -0.1902
18999THY    HA462289   5.753   8.732   3.979 -0.0392  1.1595 -0.5935
18999THY    CA562290   5.574   8.685   3.882 -0.4745  0.6527 -0.2355
18999THY    CM162291   5.639   8.711   3.748  0.1501 -0.3042 -0.2737
18999THY    HM162292   5.746   8.724   3.763  0.1810  0.7490 -1.5648
18999THY    HM262293   5.600   8.791   3.683  1.1606 -0.0536  0.4372
18999THY    HM362294   5.619   8.616   3.698 -1.7658  2.3094 -1.3537
18999THY    CA662295   5.443   8.623   3.900  0.0579 -0.2256 -0.0185
18999THY    HA662296   5.384   8.616   3.809  0.3801 -0.3402 -1.7311
19000THY      O62297   5.260   5.936   3.008 -0.0620 -0.4370  0.6459
19000THY     HO62298   5.350   5.919   2.974 -0.0275 -1.2043  2.1976
19000THY    CA162299   5.167   5.890   2.918  0.2295 -0.3872 -0.6853
19000THY    CA262300   5.030   5.898   2.931  0.0344  0.2215  0.0100
19000THY    CP162301   4.962   5.948   3.058 -0.5579  0.2214 -0.1234
19000THY    HP162302   5.041   6.005   3.107 -0.4837 -0.7048  0.5835
19000THY    CP262303   4.899   5.844   3.152 -0.1740  0.2695 -0.6756
19000THY    HP262304   4.973   5.774   3.192 -0.5936  1.1327 -0.6337
19000THY    HP362305   4.820   5.788   3.100 -0.3933 -0.5921  0.3969
19000THY    HP462306   4.858   5.905   3.233 -0.0268 -0.8360  0.9626
19000THY    CP362307   4.865   6.060   3.024 -0.2411 -0.1535 -0.1086
19000THY    HP562308   4.775   6.022   2.974 -0.0841 -1.6567  1.3934
19000THY    HP662309   4.906   6.131   2.951 -0.3943  1.3778  1.6325
19000THY    HP762310   4.841   6.109   3.120 -0.1574  0.2683 -0.8760
19000THY    CA362311   4.947   5.855   2.826 -0.1231  0.0454  0.0526
19000THY    HA362312   4.839   5.855   2.838 -0.0721  0.5093  0.0304
19000THY    CA462313   5.004   5.807   2.713 -0.5127  0.5663 -0.9196
19000THY    HA462314   4.944   5.768   2.631 -2.8861 -0.0462  3.4268
19000THY    CA562315   5.142   5.805   2.699 -0.0328  0.0809 -0.6766
19000THY    CM162316   5.181   5.750   2.570  0.8215 -0.0964  0.6280
19000THY    HM162317   5.144   5.808   2.486 -2.5393  0.0019 -1.1587
19000THY    HM262318   5.149   5.645   2.567  3.4312  3.4111 -0.4865
19000THY    HM362319   5.291   5.743   2.576  0.9735  2.0853  3.2542
19000THY    CA662320   5.226   5.839   2.803 -0.2890 -0.0304 -0.4236
19000THY    HA662321   5.333   5.834   2.788 -0.6166 -2.7586 -0.4101
19001THY      O62322   4.969   8.396   5.749  0.2279 -0.5834 -0.4188
19001THY     HO62323   5.045   8.456   5.735  0.5199  2.7156  0.1894
19001THY    CA162324   4.867   8.451   5.676  0.8009  0.2619  0.0650
19001THY    CA262325   4.745   8.379   5.645 -0.2566  0.1102  0.0836
19001THY    CP162326   4.725   8.240   5.699  0.3228  0.2009  0.1300
19001THY    HP162327   4.802   8.227   5.777 -0.8907  1.6217  1.0747
19001THY    CP262328   4.750   8.124   5.592  0.3501 -0.2700 -0.0925
19001THY    HP262329   4.702   8.156   5.498  1.4097 -1.0015 -0.5813
19001THY    HP362330   4.719   8.024   5.625 -0.3887 -0.2398  0.1360
19001THY    HP462331   4.856   8.119   5.567  0.6250  1.0807 -1.7595
19001THY    CP362332   4.588   8.211   5.772 -0.4756  0.1748 -0.9292
19001THY    HP562333   4.553   8.299   5.828 -0.7826 -1.8383  0.3031
19001THY    HP662334   4.587   8.130   5.846 -1.2399  0.5694 -0.5700
19001THY    HP762335   4.510   8.202   5.696  1.3349 -1.8719 -0.2441
19001THY    CA362336   4.643   8.436   5.569 -0.2058 -0.1103 -0.3511
19001THY    HA362337   4.558   8.373   5.543  0.5437 -1.7590 -0.7421
19001THY    CA462338   4.673   8.560   5.518 -0.5322  0.0566 -0.0682
19001THY    HA462339   4.601   8.609   5.453  0.2562 -1.1070 -0.4122
19001THY    CA562340   4.790   8.630   5.541  0.4319 -0.6535  0.5615
19001THY    CM162341   4.815   8.771   5.493  0.1761  0.0751  0.3732
19001THY    HM162342   4.887   8.827   5.554  1.2098  0.8924 -1.7369
19001THY    HM262343   4.720   8.825   5.483 -1.0867  0.5255 -1.6953
19001THY    HM362344   4.864   8.763   5.395  2.3775  1.1132  0.3598
19001THY    CA662345   4.887   8.574   5.621  0.0997  0.1910  0.2114
19001THY    HA662346   4.976   8.634   5.642  0.6319 -0.8338 -0.1876
19002THY      O62347   3.517   5.352   7.761  0.3951  0.5326  0.6046
19002THY     HO62348   3.578   5.378   7.833  1.5700  0.1762 -1.0344
19002THY    CA162349   3.537   5.218   7.740  0.6062 -0.3506 -0.4881
19002THY    CA262350   3.531   5.169   7.610 -0.6928  0.5038 -0.0927
19002THY    CP162351   3.536   5.270   7.488 -0.0956 -0.0667 -0.2527
19002THY    HP162352   3.468   5.350   7.521  1.1664 -0.5424  1.0644
19002THY    CP262353   3.462   5.216   7.365  0.0310 -0.4824 -0.3775
19002THY    HP262354   3.377   5.149   7.384 -1.1526  1.1035  1.4563
19002THY    HP362355   3.533   5.167   7.298  0.4584  0.4486 -1.0680
19002THY    HP462356   3.416   5.301   7.313 -1.0885 -1.3679 -1.4856
19002THY    CP362357   3.672   5.337   7.450 -0.2322  0.1081  0.3005
19002THY    HP562358   3.727   5.275   7.378  1.5116  2.1150 -0.6216
19002THY    HP662359   3.738   5.352   7.536  0.7216 -0.9850  2.8567
19002THY    HP762360   3.658   5.430   7.394 -1.0123  0.1443  0.2109
19002THY    CA362361   3.551   5.028   7.584 -0.0357  0.2871 -0.7616
19002THY    HA362362   3.545   4.984   7.485  0.9718  0.6461 -1.7575
19002THY    CA462363   3.557   4.943   7.695 -0.3481  0.3156  0.0481
19002THY    HA462364   3.562   4.837   7.670 -1.2031 -0.0243  0.0803
19002THY    CA562365   3.556   4.996   7.827  0.1429  0.1998  0.2032
19002THY    CM162366   3.562   4.899   7.945  1.0179 -0.3460  0.0424
19002THY    HM162367   3.465   4.850   7.961 -0.3372 -0.0129  2.6111
19002THY    HM262368   3.576   4.951   8.040 -2.1391 -1.3875  3.2171
19002THY    HM362369   3.630   4.814   7.939  0.6594  1.4311 -0.4049
19002THY    CA662370   3.546   5.130   7.849 -0.4858  0.1338  0.1176
19002THY    HA662371   3.532   5.166   7.950 -0.8479  0.4503 -0.8781
19003THY      O62372   1.114   4.378   2.555 -0.0169  0.3023  0.5950
19003THY     HO62373   1.172   4.348   2.483 -1.2783 -0.1224 -0.9231
19003THY    CA162374   1.165   4.359   2.678 -0.2460  0.4402  0.1660
19003THY    CA262375   1.084   4.368   2.794 -0.5698 -0.8105  0.3362
19003THY    CP162376   0.936   4.388   2.782 -0.5697  0.3214  0.4372
19003THY    HP162377   0.896   4.317   2.708 -3.0233  0.4586  1.5812
19003THY    CP262378   0.906   4.526   2.738  0.4369  0.3613 -0.8516
19003THY    HP262379   0.908   4.592   2.825  0.6923 -0.3662  0.1196
19003THY    HP362380   0.805   4.507   2.698  0.9707 -0.9624 -1.0273
19003THY    HP462381   0.985   4.550   2.666  0.0262 -0.0810 -0.7966
19003THY    CP362382   0.861   4.358   2.909  0.4149  0.1620 -0.1892
19003THY    HP562383   0.876   4.417   3.000 -0.9083  1.1944 -1.3806
19003THY    HP662384   0.878   4.255   2.944  0.5816  5.4428  1.3153
19003THY    HP762385   0.754   4.362   2.887  0.4751  0.0610  1.3125
19003THY    CA362386   1.160   4.343   2.915 -0.0158  0.0579  0.3027
19003THY    HA362387   1.113   4.353   3.012  0.1800  0.1680  0.1348
19003THY    CA462388   1.301   4.310   2.917  0.5373 -0.5412  0.2044
19003THY    HA462389   1.353   4.300   3.011 -0.8607  0.0740 -1.9470
19003THY    CA562390   1.368   4.306   2.796  1.0049 -1.2041  0.8041
19003THY    CM162391   1.520   4.275   2.793 -0.5041  0.3551 -0.0537
19003THY    HM162392   1.582   4.319   2.872 -2.3338  2.3797 -0.9413
19003THY    HM262393   1.569   4.329   2.711  1.5680  0.5563 -1.5036
19003THY    HM362394   1.551   4.170   2.796  2.2721  3.7395  0.6735
19003THY    CA662395   1.299   4.324   2.676 -0.0458 -0.0457  0.3419
19003THY    HA662396   1.347   4.320   2.578 -0.4827 -0.3586  2.1741
19004THY      O62397   5.504   8.562   5.542  0.0052  0.7710  0.0321
19004THY     HO62398   5.487   8.476   5.583  0.0008  0.7218  0.0094
19004THY    CA162399   5.628   8.605   5.573  0.0549 -0.1998  0.1520
19004THY    CA262400   5.679   8.735   5.548  0.1410  0.1435 -0.9491
19004THY    CP162401   5.600   8.850   5.487  0.6654 -0.8063  0.4476
19004THY    HP162402   5.497   8.826   5.459 -0.3168  0.4901  2.8043
19004THY    CP262403   5.662   8.903   5.359  0.4579 -0.2534  0.5167
19004THY    HP262404   5.612   8.994   5.326 -0.7970  2.3817  0.8555
19004THY    HP362405   5.673   8.823   5.284 -0.0341 -0.3659  0.5510
19004THY    HP462406   5.769   8.927   5.362  1.2819 -0.6452 -2.6412
19004THY    CP362407   5.588   8.959   5.594 -0.3641 -0.4470  0.1054
19004THY    HP562408   5.525   9.043   5.561  0.7587 -0.0980  1.0996
19004THY    HP662409   5.686   9.004   5.609 -0.2630 -3.1265  0.9557
19004THY    HP762410   5.556   8.914   5.689  0.4300 -0.5296 -0.6557
19004THY    CA362411   5.808   8.765   5.589 -0.0549  0.6001  0.1103
19004THY    HA362412   5.853   8.860   5.562  1.9236  0.0718 -0.9130
19004THY    CA462413   5.891   8.664   5.646 -0.0485  0.3121 -0.0290
19004THY    HA462414   5.996   8.678   5.672 -0.4322  2.0214 -0.1401
19004THY    CA562415   5.842   8.532   5.659  0.4365 -0.4007 -0.2951
19004THY    CM162416   5.930   8.427   5.714  0.2503 -0.1162  0.2667
19004THY    HM162417   6.026   8.421   5.661 -1.0120 -2.6659  1.2592
19004THY    HM262418   5.881   8.329   5.708 -0.1245 -2.0457  0.5409
19004THY    HM362419   5.957   8.444   5.819 -0.1262  0.4565 -2.2794
19004THY    CA662420   5.713   8.502   5.623  0.2067  0.4002  0.0809
19004THY    HA662421   5.674   8.404   5.647  0.2651  1.4619  0.3031
19005THY      O62422   0.305   7.924   4.485 -0.0413  0.5129 -0.4804
19005THY     HO62423   0.320   8.013   4.521 -1.9169 -0.1664  0.1570
19005THY    CA162424   0.398   7.882   4.401 -0.6962  1.1127 -1.0570
19005THY    CA262425   0.375   7.784   4.304 -0.6026 -0.3323 -1.0268
19005THY    CP162426   0.229   7.743   4.265 -0.3691  0.6190  0.6143
19005THY    HP162427   0.168   7.742   4.356  0.4612  1.2904  3.1217
19005THY    CP262428   0.220   7.618   4.188 -0.4916  0.1021  1.0691
19005THY    HP262429   0.249   7.528   4.243 -0.2873 -0.3748  0.8385
19005THY    HP362430   0.280   7.618   4.096  0.1573  0.5116  1.6586
19005THY    HP462431   0.112   7.621   4.169 -0.6904  1.1688  0.8826
19005THY    CP362432   0.165   7.856   4.179 -0.0020 -0.0657 -0.0970
19005THY    HP562433   0.209   7.859   4.078  1.2844  0.4643 -0.1877
19005THY    HP662434   0.179   7.951   4.233  2.3555  0.5990 -0.7447
19005THY    HP762435   0.061   7.825   4.178  0.0060 -1.2404 -0.1071
19005THY    CA362436   0.490   7.740   4.232  0.0353 -0.3482 -0.2349
19005THY    HA362437   0.480   7.665   4.153  1.1524  2.0436 -3.0915
19005THY    CA462438   0.616   7.791   4.247 -0.4514  0.5738  0.3229
19005THY    HA462439   0.700   7.760   4.186 -0.1286  1.2346 -0.1104
19005THY    CA562440   0.634   7.886   4.347 -0.2660  0.3369  0.1475
19005THY    CM162441   0.775   7.930   4.376  0.5611  0.4467  0.4367
19005THY    HM162442   0.833   7.852   4.427  1.6526 -1.0938  0.2089
19005THY    HM262443   0.789   8.019   4.438  1.6289 -0.9773  1.3026
19005THY    HM362444   0.813   7.953   4.276 -0.3274 -0.5048 -1.8678
19005THY    CA662445   0.530   7.926   4.424  0.0129  0.0885 -0.0313
19005THY    HA662446   0.549   8.002   4.499  1.0363  1.4169 -1.5300
19006THY      O62447   2.159   8.085   5.716 -0.3718  0.3884  0.4028
19006THY     HO62448   2.222   8.011   5.720 -0.3802 -1.1319  0.2889
19006THY    CA162449   2.214   8.179   5.634 -0.3603 -0.2665 -0.0497
19006THY    CA262450   2.223   8.318   5.661 -0.4269  0.4097 -0.1911
19006THY    CP162451   2.177   8.353   5.798  0.4012  0.2319  0.0422
19006THY    HP162452   2.114   8.272   5.836  1.1318 -0.1403 -0.7062
19006THY    CP262453   2.082   8.474   5.803 -0.1879  0.5030 -0.3968
19006THY    HP262454   1.996   8.450   5.740 -1.0820  1.7278 -0.5191
19006THY    HP362455   2.117   8.570   5.764  0.9541  3.2556  0.3991
19006THY    HP462456   2.048   8.492   5.906  1.1920  1.0788 -0.9728
19006THY    CP362457   2.294   8.370   5.893 -0.5227  0.0280  0.0971
19006THY    HP562458   2.359   8.282   5.885  0.0037  3.1834  0.1062
19006THY    HP662459   2.264   8.359   5.998  2.8234  1.1582  0.7377
19006THY    HP762460   2.358   8.457   5.880  2.3892  3.3461 -1.3053
19006THY    CA362461   2.297   8.401   5.577 -0.3240 -0.0074 -0.4266
19006THY    HA362462   2.314   8.508   5.591 -0.0702 -0.3806 -0.4162
19006THY    CA462463   2.350   8.355   5.457  0.3206  0.5765 -0.3187
19006THY    HA462464   2.395   8.421   5.384  1.0594 -0.2804 -1.7101
19006THY    CA562465   2.331   8.220   5.425 -0.2821  0.7473  0.0090
19006THY    CM162466   2.377   8.173   5.277  0.0076 -0.2090 -1.0096
19006THY    HM162467   2.357   8.234   5.188 -0.3544  0.1918 -0.5294
19006THY    HM262468   2.345   8.069   5.264 -0.9777  3.1699 -1.2792
19006THY    HM362469   2.486   8.168   5.289  0.0362  0.6237  0.6382
19006THY    CA662470   2.274   8.133   5.520 -0.1472  0.0881  0.1666
19006THY    HA662471   2.247   8.031   5.492 -1.6203  0.6213  0.3895
19007THY      O62472   8.345   6.741   7.260  0.0523  0.1032  0.5207
19007THY     HO62473   8.409   6.812   7.281 -0.4710 -0.3861  1.1510
19007THY    CA162474   8.396   6.649   7.171 -1.0591  0.0082 -0.9638
19007THY    CA262475   8.310   6.564   7.097  0.1525 -0.5790 -0.3985
19007THY    CP162476   8.157   6.566   7.128 -0.4751  0.3341  0.2014
19007THY    HP162477   8.135   6.656   7.187  1.4136 -0.5320  1.2993
19007THY    CP262478   8.105   6.443   7.209 -0.1671  1.0149 -0.3805
19007THY    HP262479   8.145   6.354   7.160 -0.8990  0.0545 -0.1934
19007THY    HP362480   7.996   6.443   7.208 -0.2153 -1.6014  0.4265
19007THY    HP462481   8.123   6.444   7.317  0.6662  0.8843  0.3018
19007THY    CP362482   8.084   6.587   6.994  0.3476 -0.1691 -0.0673
19007THY    HP562483   7.978   6.559   7.004  0.3254 -0.9643 -0.2954
19007THY    HP662484   8.113   6.527   6.907 -0.1447 -1.1652  1.0861
19007THY    HP762485   8.067   6.693   6.968 -2.8845  1.9177  0.0912
19007THY    CA362486   8.368   6.475   7.015 -0.3574  0.5678  0.3141
19007THY    HA362487   8.309   6.411   6.950 -0.2230  1.0471 -0.3014
19007THY    CA462488   8.512   6.466   7.007  0.2197  0.1867 -0.4432
19007THY    HA462489   8.563   6.394   6.944 -1.8872 -0.2134 -1.6488
19007THY    CA562490   8.591   6.548   7.087 -0.6482 -0.1477  0.5251
19007THY    CM162491   8.747   6.545   7.066 -0.0658  0.8119 -0.3267
19007THY    HM162492   8.800   6.625   7.120  0.1506 -2.5479  2.0039
19007THY    HM262493   8.765   6.568   6.961 -0.6116  0.8963  0.5419
19007THY    HM362494   8.797   6.451   7.092  3.1145 -1.1508  0.6778
19007THY    CA662495   8.538   6.649   7.161  0.1734 -0.0323 -0.0021
19007THY    HA662496   8.607   6.712   7.216 -0.1254 -0.4640  0.7164
19008THY      O62497   4.640   3.216   5.601 -0.7247  0.1864 -0.4551
19008THY     HO62498   4.554   3.261   5.592 -0.7618 -1.1488 -0.7514
19008THY    CA162499   4.614   3.088   5.607  0.9927  0.0263  0.4268
19008THY    CA262500   4.714   2.988   5.613  0.7039  0.1178  0.1790
19008THY    CP162501   4.851   3.034   5.651 -0.2035 -0.5277  0.2003
19008THY    HP162502   4.864   3.136   5.615 -0.8813  0.3179  0.5996
19008THY    CP262503   4.967   2.942   5.603 -0.5674  1.0089  0.0232
19008THY    HP262504   4.983   2.974   5.499  1.8988  1.6039  0.9472
19008THY    HP362505   4.938   2.838   5.619 -0.1892 -1.7117 -0.5920
19008THY    HP462506   5.059   2.953   5.662 -1.2263  2.3282 -1.2708
19008THY    CP362507   4.856   3.050   5.804 -0.5071  0.1821  0.5347
19008THY    HP562508   4.767   3.105   5.835 -1.7178 -1.6230 -0.2853
19008THY    HP662509   4.944   3.097   5.850 -2.3593  0.8796  3.5967
19008THY    HP762510   4.868   2.950   5.847  3.4729 -1.5445  0.0477
19008THY    CA362511   4.673   2.852   5.598 -0.3591  0.3762  0.9221
19008THY    HA362512   4.743   2.770   5.611 -0.4060  3.2285  1.2602
19008THY    CA462513   4.535   2.830   5.570  0.1441  0.0514  0.1512
19008THY    HA462514   4.491   2.731   5.566 -1.0529  0.3379  0.6577
19008THY    CA562515   4.454   2.940   5.547 -0.2985 -0.5450 -0.4421
19008THY    CM162516   4.307   2.912   5.520 -0.4671  0.2876 -0.4556
19008THY    HM162517   4.253   3.002   5.490 -0.0092  0.1758 -0.2152
19008THY    HM262518   4.257   2.860   5.603  0.0548 -0.7835 -2.8314
19008THY    HM362519   4.306   2.848   5.431  1.4838 -0.2337  0.1851
19008THY    CA662520   4.487   3.064   5.574 -1.0717  0.3437 -0.7467
19008THY    HA662521   4.407   3.136   5.560 -1.5621  2.7632 -0.7231
19009THY      O62522   1.055   3.413   2.773 -0.3556 -0.3131 -0.1957
19009THY     HO62523   1.130   3.352   2.781  0.3215  0.4569  0.7006
19009THY    CA162524   0.940   3.346   2.749 -0.0198  0.4912  0.1294
19009THY    CA262525   0.836   3.389   2.658 -0.4096 -0.2264  0.0536
19009THY    CP162526   0.853   3.521   2.583 -0.5972 -0.6857  0.6356
19009THY    HP162527   0.959   3.548   2.592 -0.6709 -1.1761  1.1130
19009THY    CP262528   0.776   3.631   2.652  0.2115 -0.1133 -0.3221
19009THY    HP262529   0.670   3.603   2.654 -0.4684  2.9266  1.9226
19009THY    HP362530   0.791   3.727   2.603  0.1681  0.8943  0.2134
19009THY    HP462531   0.807   3.642   2.757  0.6304 -0.3245  0.5893
19009THY    CP362532   0.811   3.519   2.439  0.0936 -0.0323  0.4175
19009THY    HP562533   0.706   3.485   2.434  0.2718  0.6586 -0.2624
19009THY    HP662534   0.861   3.436   2.388  0.6484  2.6208 -0.9677
19009THY    HP762535   0.830   3.615   2.390  1.1818  0.9773  0.7387
19009THY    CA362536   0.718   3.313   2.652  0.3892 -0.2057  0.9716
19009THY    HA362537   0.628   3.333   2.595  1.0512 -1.2611  0.9958
19009THY    CA462538   0.717   3.196   2.727 -0.7985 -0.2523  0.1908
19009THY    HA462539   0.629   3.134   2.714 -0.0280  0.3163 -1.0428
19009THY    CA562540   0.812   3.156   2.820 -0.1709 -0.3298 -0.3641
19009THY    CM162541   0.791   3.028   2.905  0.1102  0.8249  0.0962
19009THY    HM162542   0.892   2.993   2.929  0.4265 -1.2022 -0.5271
19009THY    HM262543   0.737   2.950   2.850 -0.5733  2.2823 -0.4934
19009THY    HM362544   0.730   3.057   2.991 -1.9719 -0.3841 -0.4842
19009THY    CA662545   0.926   3.235   2.834  0.8684  0.5267  0.0898
19009THY    HA662546   1.007   3.204   2.898  1.2903 -0.7976 -1.7169
19010THY      O62547   7.270   8.536   2.867 -0.0772  0.3844 -0.2056
19010THY     HO62548   7.308   8.538   2.777 -1.9329 -0.4497 -0.0828
19010THY    CA162549   7.238   8.666   2.891  0.7361 -0.1327 -0.0022
19010THY    CA262550   7.154   8.742   2.804 -0.2332 -0.2953 -0.1779
19010THY    CP162551   7.087   8.676   2.675 -0.3798 -0.2543  0.3073
19010THY    HP162552   7.124   8.573   2.667  0.3941  0.8597  0.4854
19010THY    CP262553   7.116   8.745   2.548 -0.3751 -0.0131  0.0658
19010THY    HP262554   7.070   8.844   2.554 -0.0816  1.4185  0.1257
19010THY    HP362555   7.087   8.693   2.455 -0.9757  1.1956 -1.8771
19010THY    HP462556   7.221   8.775   2.539 -0.7760  0.3964  1.6389
19010THY    CP362557   6.935   8.673   2.698 -0.4669  0.0533  0.1040
19010THY    HP562558   6.906   8.590   2.633  2.5767 -1.1579 -0.1240
19010THY    HP662559   6.891   8.765   2.658 -1.2806 -0.5200 -0.5184
19010THY    HP762560   6.898   8.656   2.800 -0.7089 -0.1046 -0.3274
19010THY    CA362561   7.133   8.875   2.834 -0.7717 -0.2238 -0.3760
19010THY    HA362562   7.058   8.932   2.779 -0.7916  0.9367  0.7548
19010THY    CA462563   7.187   8.941   2.944  0.0363 -0.2811  0.8729
19010THY    HA462564   7.162   9.046   2.957  0.6294  0.4421  0.9283
19010THY    CA562565   7.274   8.863   3.024 -0.4728 -0.0859 -0.2220
19010THY    CM162566   7.341   8.929   3.136 -0.2392  0.7071  0.5630
19010THY    HM162567   7.417   8.859   3.172 -1.1251  1.3800 -0.0823
19010THY    HM262568   7.264   8.932   3.214 -0.0494  0.9199 -0.0071
19010THY    HM362569   7.372   9.031   3.110 -0.3603 -0.5166  0.3070
19010THY    CA662570   7.306   8.725   2.998  0.0070  0.1264  0.6103
19010THY    HA662571   7.384   8.671   3.050  1.4600  0.1288  2.6036
19011THY      O62572   8.625   2.279   2.786 -0.4705  0.4220  0.4084
19011THY     HO62573   8.548   2.320   2.827 -1.5652 -0.9935 -0.1655
19011THY    CA162574   8.694   2.378   2.723 -0.4350 -1.0398  0.0887
19011THY    CA262575   8.836   2.376   2.712  0.1681 -0.3507  0.2636
19011THY    CP162576   8.915   2.248   2.731  0.2964  0.2770  0.7759
19011THY    HP162577   8.845   2.170   2.764 -2.5460 -1.9529  2.1894
19011THY    CP262578   9.002   2.269   2.857  0.2222  0.3248  0.1646
19011THY    HP262579   9.034   2.172   2.896  1.4305 -3.7112 -1.2806
19011THY    HP362580   8.954   2.333   2.932 -0.5238  1.0525 -1.2160
19011THY    HP462581   9.088   2.327   2.822  1.2794  1.8933 -0.4162
19011THY    CP362582   8.991   2.202   2.605 -0.5023 -0.3791  0.4120
19011THY    HP562583   8.920   2.209   2.522 -0.8173 -0.0237  1.9642
19011THY    HP662584   9.018   2.100   2.635 -0.3015  1.8133  1.0494
19011THY    HP762585   9.079   2.266   2.591 -1.5679 -1.4077  1.7152
19011THY    CA362586   8.900   2.495   2.671 -0.1539 -0.4248 -0.1537
19011THY    HA362587   9.008   2.499   2.665 -0.1139  0.4532  0.1492
19011THY    CA462588   8.824   2.615   2.648  0.5682 -0.1795  0.1900
19011THY    HA462589   8.865   2.713   2.625 -0.8821 -0.9408  0.6547
19011THY    CA562590   8.681   2.600   2.651  0.3134 -1.0685 -0.3634
19011THY    CM162591   8.583   2.703   2.599 -0.4961 -0.4038 -0.2613
19011THY    HM162592   8.571   2.676   2.493 -1.7346 -0.0715 -1.0765
19011THY    HM262593   8.625   2.804   2.614 -0.5222  2.3880 -0.5825
19011THY    HM362594   8.487   2.708   2.651 -1.4230 -2.1782  1.4686
19011THY    CA662595   8.618   2.486   2.703 -0.1402  0.3744 -0.7583
19011THY    HA662596   8.511   2.471   2.704 -0.1204  1.7035 -0.8954
19012THY      O62597   5.759   4.438   4.076  0.3763  0.1870 -0.1160
19012THY     HO62598   5.844   4.444   4.030  0.1510 -0.5716 -2.0315
19012THY    CA162599   5.779   4.508   4.189  0.4095  0.5333  0.4947
19012THY    CA262600   5.679   4.511   4.292 -0.2760  0.0488 -1.0075
19012THY    CP162601   5.549   4.441   4.274 -0.7134 -0.6943  0.3614
19012THY    HP162602   5.552   4.372   4.189  1.4417 -1.0863  0.8901
19012THY    CP262603   5.430   4.530   4.245  0.9054  0.9100 -0.6822
19012THY    HP262604   5.340   4.486   4.201  0.0937  1.4632  0.3950
19012THY    HP362605   5.449   4.601   4.163  2.8974  1.1579 -0.8610
19012THY    HP462606   5.388   4.582   4.331  2.1488  0.4947  1.1226
19012THY    CP362607   5.518   4.349   4.392  0.0919 -0.4786 -0.1427
19012THY    HP562608   5.449   4.270   4.361  1.8519 -1.7980 -1.2463
19012THY    HP662609   5.481   4.409   4.475 -0.1555 -2.2803  2.3870
19012THY    HP762610   5.613   4.299   4.415  1.5266 -0.9412  2.2174
19012THY    CA362611   5.716   4.564   4.418 -0.9742 -0.2340  0.0785
19012THY    HA362612   5.648   4.561   4.503 -2.0492 -1.0339  0.9006
19012THY    CA462613   5.842   4.625   4.436  0.6698  0.3602  0.1307
19012THY    HA462614   5.869   4.663   4.534  1.1107  0.7077 -1.0423
19012THY    CA562615   5.932   4.621   4.334  0.4705 -0.1811  0.0101
19012THY    CM162616   6.071   4.674   4.370  0.7344  0.4417  1.0262
19012THY    HM162617   6.148   4.630   4.305  0.2864 -0.2759  1.2861
19012THY    HM262618   6.085   4.639   4.473 -2.7721  0.4887 -0.5669
19012THY    HM362619   6.080   4.783   4.371 -0.2092  4.0381  1.1918
19012THY    CA662620   5.905   4.559   4.213  0.0336 -0.4064 -0.2974
19012THY    HA662621   5.993   4.533   4.155 -0.4971 -0.8653 -1.1157
19013THY      O62622   4.254   4.909   6.225  0.5182 -0.0610  0.0721
19013THY     HO62623   4.255   4.824   6.272 -1.5812 -1.2268 -0.6548
19013THY    CA162624   4.367   4.907   6.158 -0.5723  0.3613  0.1987
19013THY    CA262625   4.434   5.026   6.110 -0.3017 -1.2230  0.3299
19013THY    CP162626   4.374   5.169   6.121 -0.0415 -0.3223 -0.6104
19013THY    HP162627   4.279   5.174   6.176 -0.1058 -0.5392  1.2370
19013THY    CP262628   4.345   5.232   5.984  0.1412 -0.7841 -0.6155
19013THY    HP262629   4.438   5.239   5.926  0.5362 -0.4044 -2.2190
19013THY    HP362630   4.304   5.332   6.001  0.0679  1.6706 -1.0052
19013THY    HP462631   4.268   5.181   5.925  0.4476 -0.8171 -1.0479
19013THY    CP362632   4.469   5.262   6.198  0.5998  0.1480  0.1194
19013THY    HP562633   4.556   5.286   6.136 -1.6804 -2.8830  1.1044
19013THY    HP662634   4.508   5.214   6.289  0.7515 -1.6982 -3.6703
19013THY    HP762635   4.412   5.355   6.209  0.2446 -2.5254  0.2749
19013THY    CA362636   4.561   5.004   6.043  0.1490 -0.0162  0.2654
19013THY    HA362637   4.614   5.088   6.001  0.7423 -1.0606 -0.6123
19013THY    CA462638   4.608   4.876   6.027 -0.2631 -0.4844 -0.0713
19013THY    HA462639   4.696   4.871   5.964  0.7796  0.8152  1.1890
19013THY    CA562640   4.537   4.760   6.079  0.2295 -0.4987 -0.6528
19013THY    CM162641   4.597   4.623   6.090  0.1983 -1.1052  0.5664
19013THY    HM162642   4.638   4.610   6.190  0.3749 -1.2713 -0.2202
19013THY    HM262643   4.689   4.609   6.032  0.7858  0.3407 -2.5289
19013THY    HM362644   4.526   4.541   6.070  1.3154  2.8098 -1.6330
19013THY    CA662645   4.422   4.783   6.152 -0.1265  0.3720  0.4732
19013THY    HA662646   4.375   4.694   6.192 -0.9192  1.3065  1.2981
19014THY      O62647   0.824   4.969   4.013 -0.0607 -0.2894 -0.6572
19014THY     HO62648   0.833   4.890   3.957  0.7686  2.0998 -2.3665
19014THY    CA162649   0.820   5.069   3.920 -0.5552  0.1539 -0.3219
19014THY    CA262650   0.756   5.191   3.947 -0.9922 -0.4053  0.5909
19014THY    CP162651   0.709   5.216   4.090 -0.0391  1.1632 -0.0110
19014THY    HP162652   0.720   5.125   4.150  2.6802  0.7276 -0.0504
19014THY    CP262653   0.566   5.279   4.097 -0.4841  1.1257 -0.5138
19014THY    HP262654   0.541   5.283   4.204 -1.7968  0.8284 -0.5712
19014THY    HP362655   0.492   5.226   4.037  1.6529 -1.5426 -0.7174
19014THY    HP462656   0.565   5.383   4.061  0.7273  0.2085 -0.7963
19014THY    CP362657   0.808   5.311   4.156  0.0608 -0.7770  0.0746
19014THY    HP562658   0.909   5.298   4.114  0.6367  1.2706 -3.4984
19014THY    HP662659   0.807   5.292   4.264 -1.6183 -0.6999  0.4974
19014THY    HP762660   0.776   5.415   4.147  1.1250 -2.0624  0.3123
19014THY    CA362661   0.737   5.281   3.841  0.7174  0.2001 -0.9099
19014THY    HA362662   0.686   5.377   3.852 -0.8277  0.1847 -1.7057
19014THY    CA462663   0.770   5.247   3.713 -0.1782  0.3970  0.0209
19014THY    HA462664   0.751   5.314   3.629  0.7327  1.3247  1.5052
19014THY    CA562665   0.845   5.134   3.692  0.3573 -0.3665  0.8710
19014THY    CM162666   0.887   5.104   3.557 -0.7214  0.3387 -0.5535
19014THY    HM162667   0.805   5.115   3.485 -0.7014  0.2535 -0.9815
19014THY    HM262668   0.915   4.999   3.560  1.9412  1.7616  0.1095
19014THY    HM362669   0.972   5.169   3.532 -0.9164  2.6013  0.6923
19014THY    CA662670   0.864   5.042   3.791 -0.6196  0.7058 -0.2877
19014THY    HA662671   0.902   4.945   3.762 -1.2992 -0.6064 -0.1927
19015THY      O62672   6.227   0.568   5.361 -0.1108 -0.3503  0.1874
19015THY     HO62673   6.231   0.637   5.292 -2.7626 -0.5936  0.2315
19015THY    CA162674   6.131   0.597   5.457 -0.2821  0.6023  0.6152
19015THY    CA262675   6.165   0.587   5.592 -0.2497 -0.2438 -0.2071
19015THY    CP162676   6.282   0.502   5.630  0.2631 -0.4256  0.2698
19015THY    HP162677   6.326   0.460   5.538  0.4682  0.3223 -1.2370
19015THY    CP262678   6.247   0.390   5.729 -0.1206 -0.0287  0.2350
19015THY    HP262679   6.153   0.339   5.707  0.5391 -1.5035 -0.3939
19015THY    HP362680   6.252   0.424   5.833 -0.9111  0.3297 -0.6890
19015THY    HP462681   6.327   0.315   5.724  0.2813  1.4819  0.5235
19015THY    CP362682   6.393   0.592   5.696 -0.8403  0.1497  0.1150
19015THY    HP562683   6.373   0.633   5.795  2.6531  1.1936 -0.3483
19015THY    HP662684   6.412   0.678   5.631  1.8646 -1.1272 -1.2881
19015THY    HP762685   6.486   0.535   5.685  0.4020  0.2139  2.0136
19015THY    CA362686   6.065   0.623   5.688 -0.6740  0.1264 -0.2955
19015THY    HA362687   6.077   0.615   5.795 -0.7969  0.1531 -0.1335
19015THY    CA462688   5.947   0.686   5.646  0.3314 -0.4173  0.1966
19015THY    HA462689   5.871   0.720   5.717  0.6760 -0.1265  0.3652
19015THY    CA562690   5.926   0.699   5.508  0.1011  0.1239 -0.9081
19015THY    CM162691   5.799   0.765   5.455 -0.1470  0.2999  0.8220
19015THY    HM162692   5.712   0.746   5.519 -0.7521 -0.2372  1.7070
19015THY    HM262693   5.786   0.709   5.362 -0.9373  0.8439  0.0777
19015THY    HM362694   5.803   0.875   5.448  0.9619 -2.1915  0.6661
19015THY    CA662695   6.018   0.649   5.411 -0.1597  0.2701 -0.5178
19015THY    HA662696   6.008   0.668   5.305  2.5110 -0.1131 -0.9488
19016THY      O62697   6.401   2.983   6.863 -0.1918 -0.0563 -0.0881
19016THY     HO62698   6.376   3.053   6.927 -1.8533  0.7068 -1.2956
19016THY    CA162699   6.293   2.902   6.862  0.0117 -0.2128  0.0930
19016THY    CA262700   6.261   2.825   6.750  0.1757  0.0786  0.3036
19016THY    CP162701   6.349   2.804   6.625  0.6613  0.7629 -0.2329
19016THY    HP162702   6.430   2.876   6.638  0.1868 -3.1531  1.2678
19016THY    CP262703   6.284   2.840   6.489  0.5182 -0.0613 -0.1505
19016THY    HP262704   6.175   2.848   6.491  0.2378  0.9016 -3.0346
19016THY    HP362705   6.297   2.762   6.413  2.4029  1.2005 -1.1486
19016THY    HP462706   6.331   2.928   6.444  1.7253  1.2358 -0.0953
19016THY    CP362707   6.416   2.669   6.609  0.4296  0.3116 -0.1846
19016THY    HP562708   6.354   2.606   6.544 -0.2846  1.6645 -0.9231
19016THY    HP662709   6.410   2.620   6.707  1.8821  0.5708  0.1112
19016THY    HP762710   6.516   2.676   6.566  0.9761  1.2827 -1.5396
19016THY    CA362711   6.151   2.733   6.753  0.8136 -0.5209  0.1929
19016THY    HA362712   6.132   2.656   6.679  0.5792 -0.4788  0.2083
19016THY    CA462713   6.079   2.729   6.876  1.1669 -0.1782  0.0403
19016THY    HA462714   5.999   2.657   6.892 -0.3820  2.0045  2.0672
19016THY    CA562715   6.098   2.826   6.980 -0.3117  0.8583 -0.5458
19016THY    CM162716   6.010   2.832   7.103  0.5023  0.0188 -0.0907
19016THY    HM162717   5.916   2.779   7.086  1.2265 -2.0118 -0.8224
19016THY    HM262718   5.991   2.939   7.122 -0.2819 -2.0187  0.1785
19016THY    HM362719   6.065   2.794   7.190  0.5296  0.5294  1.0754
19016THY    CA662720   6.216   2.904   6.972 -0.7091 -0.6280  0.4720
19016THY    HA662721   6.245   2.958   7.062 -0.3662  0.6148 -1.6844
19017THY      O62722   9.298   2.034   5.936  0.4432 -0.0037  0.3978
19017THY     HO62723   9.321   1.988   6.019  0.7376 -0.0913  0.3824
19017THY    CA162724   9.323   2.165   5.948 -0.2882  0.9264 -0.0988
19017THY    CA262725   9.338   2.251   5.833  0.4893  0.2603 -0.1007
19017THY    CP162726   9.338   2.195   5.688 -0.2587 -0.2082  0.7443
19017THY    HP162727   9.263   2.115   5.680  0.7877  1.1845 -0.4457
19017THY    CP262728   9.480   2.151   5.643 -0.4077  0.6356  0.8343
19017THY    HP262729   9.546   2.239   5.648  1.5580 -0.4115 -0.5005
19017THY    HP362730   9.472   2.109   5.542  0.8141  1.1518 -0.7603
19017THY    HP462731   9.510   2.071   5.711  0.2664 -0.7557 -0.1427
19017THY    CP362732   9.287   2.298   5.588  0.5112  0.3104  0.1003
19017THY    HP562733   9.261   2.246   5.496 -2.4861  0.9609  0.2468
19017THY    HP662734   9.359   2.377   5.562 -0.2863 -2.4990 -0.0223
19017THY    HP762735   9.201   2.351   5.630 -1.0001 -1.7185 -0.6397
19017THY    CA362736   9.343   2.388   5.855  1.1513  0.3463 -0.3300
19017THY    HA362737   9.339   2.457   5.771 -1.7873  0.1998 -0.5352
19017THY    CA462738   9.341   2.442   5.990  0.0884  0.9287  0.8885
19017THY    HA462739   9.349   2.548   6.012 -3.2109 -0.3757  1.5253
19017THY    CA562740   9.333   2.353   6.100 -0.4468  0.4015  0.9649
19017THY    CM162741   9.343   2.407   6.238 -0.1285  0.3652 -0.5865
19017THY    HM162742   9.429   2.368   6.295  0.1553 -0.4945 -1.2369
19017THY    HM262743   9.251   2.407   6.298 -0.2201  0.2251 -0.4257
19017THY    HM362744   9.377   2.511   6.223  0.7933 -1.3038 -1.0975
19017THY    CA662745   9.319   2.213   6.075 -0.1961  0.4479  0.8584
19017THY    HA662746   9.325   2.150   6.164  0.8772  0.7112  1.3153
19018THY      O62747   3.682   7.774   5.697  0.1052 -0.4119 -0.0444
19018THY     HO62748   3.594   7.735   5.685 -0.0820 -3.3364  1.0571
19018THY    CA162749   3.747   7.728   5.582 -0.4164 -0.1411 -0.1765
19018THY    CA262750   3.779   7.814   5.476 -0.6765 -0.0508 -1.5166
19018THY    CP162751   3.758   7.971   5.494 -0.1649  0.1626  0.1042
19018THY    HP162752   3.714   7.998   5.591  1.7603  1.2725 -0.5202
19018THY    CP262753   3.658   8.025   5.389 -0.0574  0.0739  0.3920
19018THY    HP262754   3.552   8.013   5.414  0.0198 -0.2588 -1.1302
19018THY    HP362755   3.674   7.961   5.302 -0.2014  0.1447  0.2574
19018THY    HP462756   3.691   8.121   5.348  0.2870 -1.1771 -0.2432
19018THY    CP362757   3.890   8.048   5.487  0.7430  0.8484 -0.6063
19018THY    HP562758   3.968   8.005   5.552  0.5028  1.0892 -0.6794
19018THY    HP662759   3.871   8.153   5.509 -0.7353 -1.2312 -0.3729
19018THY    HP762760   3.927   8.051   5.384  0.5313  0.8032  1.0127
19018THY    CA362761   3.858   7.756   5.371 -0.3220 -0.1189 -0.4025
19018THY    HA362762   3.906   7.815   5.294 -0.4393  0.1798  0.0903
19018THY    CA462763   3.886   7.620   5.376 -0.3111 -0.1434 -0.1596
19018THY    HA462764   3.947   7.581   5.295 -0.2312 -0.2088  0.0968
19018THY    CA562765   3.839   7.532   5.472 -0.1505 -0.3256  0.1750
19018THY    CM162766   3.875   7.395   5.481 -0.2963 -0.5637  0.5085
19018THY    HM162767   3.829   7.339   5.399 -0.7284 -1.5565  2.2560
19018THY    HM262768   3.838   7.348   5.572 -1.2592 -0.8748  0.6429
19018THY    HM362769   3.982   7.371   5.484 -0.8548 -1.1799 -2.3926
19018THY    CA662770   3.777   7.590   5.585 -0.1009  0.4777 -1.0509
19018THY    HA662771   3.753   7.533   5.674 -1.9914 -0.4855 -1.8478
19019THY      O62772   7.847   4.678   2.758 -0.0378  0.3010 -0.1037
19019THY     HO62773   7.918   4.723   2.806  1.1882  0.2423 -1.9008
19019THY    CA162774   7.744   4.684   2.844  0.2634 -0.0817  0.0112
19019THY    CA262775   7.650   4.582   2.852  0.0351 -0.0995 -0.0876
19019THY    CP162776   7.670   4.449   2.777 -1.3851 -0.1406 -0.6587
19019THY    HP162777   7.757   4.454   2.711 -1.4586 -0.1802  0.1078
19019THY    CP262778   7.551   4.411   2.692 -0.4124  0.1004 -0.5500
19019THY    HP262779   7.562   4.305   2.666 -0.0014  0.4181 -0.5900
19019THY    HP362780   7.538   4.470   2.601  1.7700 -1.2976 -2.0975
19019THY    HP462781   7.460   4.419   2.752 -0.3024  0.6397 -2.7276
19019THY    CP362782   7.717   4.339   2.883  0.0004 -0.0506  0.1806
19019THY    HP562783   7.823   4.362   2.903  0.1596 -0.1016 -0.4713
19019THY    HP662784   7.717   4.240   2.835  0.9768 -0.3987  0.3335
19019THY    HP762785   7.649   4.342   2.969  1.4797  1.1365  1.4980
19019THY    CA362786   7.541   4.597   2.943  0.6446  0.5171  0.2513
19019THY    HA362787   7.482   4.515   2.983 -1.6768  0.1660  1.6532
19019THY    CA462788   7.543   4.704   3.036 -0.4545  0.2153 -1.1304
19019THY    HA462789   7.465   4.726   3.109 -0.1817 -0.2737  1.8945
19019THY    CA562790   7.624   4.808   3.019  0.3262  0.3715 -0.6915
19019THY    CM162791   7.599   4.929   3.114 -0.2346  0.0936  0.5269
19019THY    HM162792   7.523   4.995   3.070  1.5479  0.8225  3.2267
19019THY    HM262793   7.687   4.995   3.115 -0.3461 -0.6066  0.6935
19019THY    HM362794   7.577   4.892   3.215  1.2870  0.2999  0.1270
19019THY    CA662795   7.728   4.801   2.923  0.4221 -0.2236 -0.2511
19019THY    HA662796   7.794   4.888   2.917 -0.1418 -1.9724  0.1009
19020THY      O62797   7.076   3.891   5.726  0.6666  0.4617 -0.5845
19020THY     HO62798   7.153   3.911   5.782  1.0371  0.2634 -1.4201
19020THY    CA162799   6.962   3.854   5.795  0.8359 -0.2186 -0.4996
19020THY    CA262800   6.862   3.777   5.741  0.2141  0.4274  0.4441
19020THY    CP162801   6.886   3.733   5.596  0.4266  0.4341 -0.2550
19020THY    HP162802   6.993   3.731   5.574  0.5156  0.8477 -0.1179
19020THY    CP262803   6.818   3.818   5.493 -0.0182  0.0352  0.1195
19020THY    HP262804   6.890   3.836   5.412 -0.7026 -0.7551 -0.6327
19020THY    HP362805   6.812   3.921   5.529 -1.2629 -0.3446  0.1840
19020THY    HP462806   6.724   3.778   5.455 -0.2630  0.2764  0.4613
19020THY    CP362807   6.847   3.580   5.572 -0.3603  0.1396 -0.1601
19020THY    HP562808   6.927   3.530   5.627 -0.5977 -0.9569 -1.8376
19020THY    HP662809   6.852   3.558   5.465  0.0708 -0.0629  0.8635
19020THY    HP762810   6.746   3.554   5.608  0.1125  1.0743 -0.7582
19020THY    CA362811   6.759   3.728   5.820 -0.3552 -0.2918 -0.3005
19020THY    HA362812   6.679   3.665   5.782 -1.0103  2.8284 -1.5135
19020THY    CA462813   6.750   3.759   5.958  0.2045  0.3400 -0.8151
19020THY    HA462814   6.671   3.718   6.020  0.1611  1.2741  0.5967
19020THY    CA562815   6.854   3.837   6.012  0.6862 -0.3320  0.6767
19020THY    CM162816   6.844   3.875   6.156  0.6024  0.8088 -0.1223
19020THY    HM162817   6.777   3.826   6.228  0.7411  1.0776  0.0817
19020THY    HM262818   6.830   3.983   6.160  0.6808 -1.0973 -0.0002
19020THY    HM362819   6.941   3.845   6.198 -0.5785  2.6509 -1.6063
19020THY    CA662820   6.950   3.885   5.929  0.3387 -0.4357  0.4305
19020THY    HA662821   7.026   3.938   5.985  0.3121 -1.0447  1.1352
19021THY      O62822   4.258   1.212   3.628 -0.7268 -0.6024  0.0361
19021THY     HO62823   4.318   1.154   3.679  2.2817 -1.5588  2.0948
19021THY    CA162824   4.241   1.323   3.699  0.5669 -0.3668 -0.7961
19021THY    CA262825   4.119   1.354   3.765 -0.2900  0.3305  0.2373
19021THY    CP162826   4.015   1.239   3.782 -0.7013  0.1938 -0.1067
19021THY    HP162827   4.041   1.149   3.726 -0.2711  1.4809 -0.8111
19021THY    CP262828   3.870   1.290   3.743 -0.1241 -0.2406 -0.0230
19021THY    HP262829   3.838   1.387   3.784  0.5399 -0.7472  0.4195
19021THY    HP362830   3.800   1.223   3.793  0.5492  1.0188  0.1720
19021THY    HP462831   3.864   1.281   3.634 -0.8753 -0.0965 -1.4282
19021THY    CP362832   4.026   1.191   3.929 -0.3486 -0.8947  0.1187
19021THY    HP562833   3.935   1.134   3.953  0.7763  0.6735 -1.1151
19021THY    HP662834   4.036   1.281   3.990  1.4512 -0.0204 -0.6206
19021THY    HP762835   4.118   1.132   3.940  0.8007 -2.7589  1.4549
19021THY    CA362836   4.097   1.478   3.831 -0.3007  0.5417 -0.2515
19021THY    HA362837   4.008   1.497   3.890 -0.5304  0.5322 -1.2413
19021THY    CA462838   4.197   1.576   3.818 -0.1249  1.0433  0.2617
19021THY    HA462839   4.184   1.676   3.859  0.0366  3.3301 -0.6063
19021THY    CA562840   4.320   1.546   3.756  0.1280  0.3961  0.1285
19021THY    CM162841   4.436   1.649   3.752 -0.3638  0.8969 -0.5222
19021THY    HM162842   4.447   1.709   3.843  0.2028 -0.0363  0.8443
19021THY    HM262843   4.416   1.724   3.675 -0.6630  0.5895 -0.9100
19021THY    HM362844   4.535   1.607   3.729 -0.1049  0.6368  0.2140
19021THY    CA662845   4.336   1.422   3.695  0.5432  0.1881  0.1652
19021THY    HA662846   4.430   1.386   3.653 -0.0768 -1.3410  0.2256
19022THY      O62847   2.910   0.075   6.869  0.0229  0.1391  0.3508
19022THY     HO62848   2.907   0.012   6.795  1.2681  1.0265 -0.8177
19022THY    CA162849   2.909   0.199   6.817  0.1218 -0.0074  0.1322
19022THY    CA262850   2.956   0.309   6.888  0.0505 -0.6108  0.2786
19022THY    CP162851   3.009   0.294   7.036 -0.2798 -0.4668 -0.0909
19022THY    HP162852   3.033   0.191   7.064 -1.7703  2.1689  0.1911
19022THY    CP262853   2.908   0.357   7.131 -0.5289 -0.4120 -0.7775
19022THY    HP262854   2.891   0.464   7.118  1.2050  4.8843  0.4278
19022THY    HP362855   2.941   0.343   7.235  1.3274 -0.6261  1.4264
19022THY    HP462856   2.810   0.311   7.112 -1.8396  0.7772  1.3476
19022THY    CP362857   3.149   0.356   7.054  0.5667 -0.0727 -0.2314
19022THY    HP562858   3.209   0.311   6.973  0.1636 -1.3656  1.4541
19022THY    HP662859   3.211   0.324   7.139  2.4490 -1.3500 -0.1515
19022THY    HP762860   3.162   0.465   7.053  2.8657 -0.1399 -0.4556
19022THY    CA362861   2.946   0.442   6.840 -0.3922 -0.0497  0.6419
19022THY    HA362862   2.988   0.529   6.890 -0.7602 -0.4983  1.0795
19022THY    CA462863   2.910   0.460   6.707  0.3850 -0.1383  0.0849
19022THY    HA462864   2.916   0.560   6.665 -0.8066  1.7798  1.0114
19022THY    CA562865   2.871   0.352   6.627 -0.1815  0.7914  0.0279
19022THY    CM162866   2.846   0.368   6.479  0.5035  0.0445 -0.0817
19022THY    HM162867   2.777   0.289   6.450 -0.2682  0.2885  0.4885
19022THY    HM262868   2.934   0.347   6.416  2.4347  2.5509  0.0016
19022THY    HM362869   2.812   0.470   6.457 -0.4528  1.5784 -0.0427
19022THY    CA662870   2.861   0.221   6.684  0.3444 -1.2366 -0.2505
19022THY    HA662871   2.818   0.138   6.629  1.2631  0.3961 -1.8703
19023THY      O62872   0.317   4.597   5.035  0.0834 -0.9029  0.0668
19023THY     HO62873   0.357   4.562   4.953  0.3431 -1.0687  0.7376
19023THY    CA162874   0.419   4.661   5.098 -0.2174  0.0074  0.2741
19023THY    CA262875   0.417   4.692   5.235 -0.9399  0.8752  0.2295
19023THY    CP162876   0.300   4.660   5.320  0.9503 -0.7303  0.6043
19023THY    HP162877   0.213   4.641   5.257  0.6380  0.0222 -0.6080
19023THY    CP262878   0.270   4.775   5.426  0.6902  0.5824 -0.2429
19023THY    HP262879   0.161   4.779   5.432  0.5888 -0.4173 -1.2167
19023THY    HP362880   0.318   4.863   5.381  0.0608 -0.2519 -0.3171
19023THY    HP462881   0.312   4.760   5.527  1.7742  0.0584 -0.8229
19023THY    CP362882   0.318   4.526   5.405  0.0304  0.3379 -0.1429
19023THY    HP562883   0.420   4.520   5.445  1.6010 -3.2404  0.4899
19023THY    HP662884   0.311   4.439   5.339 -0.5460  0.4033 -0.1536
19023THY    HP762885   0.239   4.512   5.480 -0.7081 -0.6526 -1.5310
19023THY    CA362886   0.532   4.743   5.288  0.1281  0.0007 -0.2288
19023THY    HA362887   0.525   4.769   5.393 -2.0062 -0.3294  0.7212
19023THY    CA462888   0.650   4.775   5.212 -0.3917 -0.3847 -0.5076
19023THY    HA462889   0.735   4.823   5.261 -0.5809 -1.5643  1.1285
19023THY    CA562890   0.641   4.747   5.080  0.2764  0.6245  0.5835
19023THY    CM162891   0.753   4.780   4.992 -0.1190  0.2906 -0.2445
19023THY    HM162892   0.820   4.695   4.977  0.3512  0.0015  0.1755
19023THY    HM262893   0.814   4.862   5.032 -1.7783 -0.4618  1.4359
19023THY    HM362894   0.717   4.823   4.898 -1.0441  0.3697 -0.8050
19023THY    CA662895   0.528   4.690   5.017 -0.0120 -0.3971 -0.5273
19023THY    HA662896   0.533   4.666   4.911 -1.2996 -0.8555  1.0559
19024THY      O62897   1.273   3.249   2.720  0.0824 -0.1462  0.1285
19024THY     HO62898   1.286   3.242   2.624 -1.4510 -0.5695  2.2222
19024THY    CA162899   1.397   3.230   2.762 -0.2229 -0.3026  0.3053
19024THY    CA262900   1.447   3.196   2.888 -0.1092 -0.0422  0.9131
19024THY    CP162901   1.343   3.188   3.003  0.0456 -0.3235  0.1018
19024THY    HP162902   1.247   3.235   2.976  0.9823  0.0296  2.3796
19024THY    CP262903   1.403   3.235   3.133 -0.1751  0.2642  0.7362
19024THY    HP262904   1.332   3.242   3.216  1.7088  2.0048  0.1188
19024THY    HP362905   1.447   3.336   3.130 -0.5914 -1.9489  0.8957
19024THY    HP462906   1.474   3.162   3.173  0.6351 -0.1758  1.2699
19024THY    CP362907   1.289   3.039   3.014 -0.1726 -0.5395  0.1204
19024THY    HP562908   1.368   2.966   2.989 -0.2589  0.0516 -0.1807
19024THY    HP662909   1.205   3.025   2.945 -1.7408  1.2925  0.1323
19024THY    HP762910   1.262   3.009   3.116 -0.7326 -0.3566  1.2103
19024THY    CA362911   1.579   3.151   2.905  0.1090  0.1852  0.3388
19024THY    HA362912   1.624   3.125   3.001  0.2131 -0.1357 -0.7328
19024THY    CA462913   1.655   3.148   2.792 -0.5895  0.3669  0.0049
19024THY    HA462914   1.750   3.096   2.800 -1.0784 -0.3938 -1.0402
19024THY    CA562915   1.617   3.188   2.664 -0.3961 -0.2547  0.1339
19024THY    CM162916   1.706   3.169   2.546  0.6805 -0.6203  0.4509
19024THY    HM162917   1.812   3.164   2.576 -0.0472  1.9536 -1.6084
19024THY    HM262918   1.696   3.246   2.469  2.1191 -1.3619 -0.0674
19024THY    HM362919   1.675   3.080   2.490 -2.0039  1.9174 -0.3476
19024THY    CA662920   1.490   3.244   2.654  0.1441  0.2804 -0.3274
19024THY    HA662921   1.461   3.266   2.551  1.5952 -0.0283  0.2274
19025THY      O62922   3.612   4.515   4.317  0.1297  0.5967  0.4752
19025THY     HO62923   3.567   4.506   4.231 -2.5618  1.9396  0.2547
19025THY    CA162924   3.622   4.648   4.352 -0.8974 -0.3022 -0.5459
19025THY    CA262925   3.661   4.699   4.473 -0.2687 -0.5385  0.2861
19025THY    CP162926   3.699   4.603   4.583 -0.6396 -0.6712 -0.7056
19025THY    HP162927   3.759   4.518   4.547  1.4944  0.8350  0.0604
19025THY    CP262928   3.578   4.533   4.645 -0.4942 -0.4966  0.5242
19025THY    HP262929   3.497   4.517   4.573 -0.1780 -0.6239 -0.6200
19025THY    HP362930   3.547   4.599   4.727 -0.0956  0.0776  0.0130
19025THY    HP462931   3.612   4.439   4.691  0.5311  1.7100  1.9077
19025THY    CP362932   3.793   4.670   4.695 -0.5105  0.2241  0.2496
19025THY    HP562933   3.877   4.730   4.659  0.0046 -0.7568 -1.0447
19025THY    HP662934   3.829   4.586   4.755  1.5551 -1.5483 -0.2167
19025THY    HP762935   3.717   4.724   4.754 -1.0528 -1.5209  1.5134
19025THY    CA362936   3.667   4.836   4.495 -0.4242  0.0307  0.0765
19025THY    HA362937   3.710   4.886   4.582 -1.8781  0.3263  0.8743
19025THY    CA462938   3.646   4.923   4.392  0.4325  0.4067  0.4621
19025THY    HA462939   3.672   5.028   4.403  0.6008  1.3719  0.3283
19025THY    CA562940   3.592   4.875   4.274 -0.3386 -0.6402 -0.2882
19025THY    CM162941   3.560   4.970   4.155 -0.8808  0.0042 -0.2483
19025THY    HM162942   3.543   4.904   4.070 -1.4280 -1.5773  1.8158
19025THY    HM262943   3.648   5.033   4.136 -2.0141 -0.1291  1.3749
19025THY    HM362944   3.471   5.032   4.173  0.7529  0.0410  2.2117
19025THY    CA662945   3.587   4.740   4.256 -0.1754 -0.0242  0.3506
19025THY    HA662946   3.548   4.701   4.162 -3.1798  1.1709  0.1602
19026THY      O62947   0.808   3.785   7.419  0.0184 -0.4155  0.2116
19026THY     HO62948   0.867   3.721   7.375 -1.9125  0.7576 -2.6007
19026THY    CA162949   0.744   3.836   7.316  0.0093  0.1739  0.9511
19026THY    CA262950   0.663   3.956   7.331  0.4672 -0.4351 -0.1723
19026THY    CP162951   0.648   4.032   7.466  0.0999  0.0967  0.0812
19026THY    HP162952   0.705   3.974   7.539 -1.7200  1.6825  0.1940
19026THY    CP262953   0.515   4.027   7.530 -0.3154  1.2663  0.1273
19026THY    HP262954   0.487   3.921   7.524 -0.5277 -3.9037  0.2312
19026THY    HP362955   0.451   4.102   7.483  1.4609  0.3087  1.1063
19026THY    HP462956   0.525   4.059   7.635 -2.6921  2.1264 -1.5933
19026THY    CP362957   0.704   4.180   7.462 -0.0845 -0.1018 -0.1398
19026THY    HP562958   0.804   4.189   7.420  0.6941  1.9555  1.8945
19026THY    HP662959   0.718   4.229   7.559 -2.3796  0.0880  0.2560
19026THY    HP762960   0.647   4.243   7.393  0.4400 -1.2204 -0.8649
19026THY    CA362961   0.594   4.012   7.216 -0.0761 -0.2064  0.1957
19026THY    HA362962   0.531   4.099   7.233  1.4016 -0.0641  1.2855
19026THY    CA462963   0.596   3.945   7.097  0.3008  0.3335  0.1654
19026THY    HA462964   0.533   3.985   7.018  1.2123  0.2088  1.4286
19026THY    CA562965   0.675   3.833   7.082  0.1813  1.0581  0.4821
19026THY    CM162966   0.683   3.768   6.942 -0.4255  0.0563  0.1931
19026THY    HM162967   0.663   3.832   6.855  0.3275  0.3870  0.8875
19026THY    HM262968   0.603   3.692   6.944  0.5813  1.5825 -0.8678
19026THY    HM362969   0.770   3.704   6.926 -1.2124  0.9970 -1.1792
19026THY    CA662970   0.744   3.779   7.192  0.0663  1.1146  0.2741
19026THY    HA662971   0.800   3.688   7.173 -1.8656 -2.6920 -0.3586
19027THY      O62972   6.364   2.888   5.456 -0.0565  0.0472  0.3913
19027THY     HO62973   6.414   2.929   5.384  3.0025  0.0674 -2.7862
19027THY    CA162974   6.232   2.924   5.449  0.2759  0.1723 -0.1654
19027THY    CA262975   6.138   2.866   5.535  0.1697  0.4691 -0.1609
19027THY    CP162976   6.192   2.767   5.636  0.0354 -0.4293  0.5959
19027THY    HP162977   6.301   2.774   5.646  0.0958 -0.5700 -0.0355
19027THY    CP262978   6.162   2.625   5.574 -0.1651 -0.0651  0.0433
19027THY    HP262979   6.209   2.622   5.475 -1.8748 -0.9912  1.5507
19027THY    HP362980   6.057   2.595   5.562  1.0689 -2.0146 -4.2133
19027THY    HP462981   6.227   2.556   5.629  1.3424 -1.1545  0.5500
19027THY    CP362982   6.129   2.788   5.770  0.2059 -0.3415 -0.5230
19027THY    HP562983   6.181   2.724   5.842  0.4669 -0.5884 -0.5938
19027THY    HP662984   6.024   2.759   5.768  0.0534 -1.0991  0.0386
19027THY    HP762985   6.153   2.892   5.795 -1.8977  0.0249 -0.0950
19027THY    CA362986   6.001   2.885   5.519  0.2433  0.0340 -0.4289
19027THY    HA362987   5.925   2.827   5.571 -1.5991 -0.9658  0.9954
19027THY    CA462988   5.959   2.977   5.409 -0.6980 -0.5875  0.1947
19027THY    HA462989   5.854   3.004   5.402 -1.0829  1.0460 -0.7674
19027THY    CA562990   6.056   3.035   5.327 -0.5420 -0.1715 -0.1857
19027THY    CM162991   6.022   3.120   5.200  0.2140 -0.6731 -0.3395
19027THY    HM162992   6.022   3.227   5.223 -1.9290 -0.9900 -0.2282
19027THY    HM262993   5.921   3.108   5.159  0.4918 -1.3603 -0.3856
19027THY    HM362994   6.102   3.107   5.126  1.1442 -0.0195  1.4467
19027THY    CA662995   6.195   3.017   5.356  1.1668 -0.1710 -0.5547
19027THY    HA662996   6.269   3.044   5.282  1.3472 -1.2145 -3.4949
19028THY      O62997   8.009   5.994   6.205  0.5430  0.4414  0.5949
19028THY     HO62998   8.044   5.969   6.118 -0.3006 -0.5378  2.6305
19028THY    CA162999   8.081   5.924   6.289  0.6420 -0.1235 -0.4832
19028THY    CA263000   8.046   5.897   6.417  0.8216  0.0022 -0.6183
19028THY    CP163001   7.916   5.947   6.482 -0.4335 -0.2667 -0.0721
19028THY    HP163002   7.849   6.005   6.417 -0.7581 -0.0076 -0.1557
19028THY    CP263003   7.945   6.026   6.606  0.7266  0.3327  0.0604
19028THY    HP263004   7.845   6.042   6.648 -0.3137 -1.6638 -0.7709
19028THY    HP363005   7.997   6.118   6.578  1.6437 -0.0181 -0.5492
19028THY    HP463006   8.005   5.965   6.674  0.6067 -0.2750 -0.7602
19028THY    CP363007   7.823   5.829   6.509 -0.0906  0.3525  0.2863
19028THY    HP563008   7.727   5.875   6.532 -0.0395 -0.3153  0.7338
19028THY    HP663009   7.864   5.779   6.598  1.0385  0.4163  1.2811
19028THY    HP763010   7.812   5.760   6.424  0.5664  1.2729 -0.9998
19028THY    CA363011   8.127   5.815   6.496 -0.7204 -0.8658  0.9333
19028THY    HA363012   8.105   5.783   6.598  3.1558 -0.4286 -0.9110
19028THY    CA463013   8.244   5.754   6.443  0.3531  0.3268 -0.9315
19028THY    HA463014   8.299   5.686   6.507 -0.7344  1.6215 -0.6423
19028THY    CA563015   8.281   5.783   6.310  0.2792 -0.6607 -0.0471
19028THY    CM163016   8.399   5.719   6.248 -1.0364 -0.5328  0.0003
19028THY    HM163017   8.384   5.690   6.144 -0.2443 -1.1254  1.5929
19028THY    HM263018   8.438   5.631   6.300 -2.1956  0.1760 -0.1164
19028THY    HM363019   8.475   5.798   6.252  0.4784  2.4491 -1.4324
19028THY    CA663020   8.197   5.870   6.238 -0.1221  0.3064  0.3782
19028THY    HA663021   8.231   5.897   6.138  1.7676  1.0988  1.0666
19029THY      O63022   7.591   8.687   2.746 -0.0234  0.1812 -0.3895
19029THY     HO63023   7.620   8.599   2.774 -2.3492 -1.2333 -1.7267
19029THY    CA163024   7.614   8.773   2.842  0.1551  0.1549 -0.1735
19029THY    CA263025   7.595   8.912   2.816 -0.4308  0.4234 -0.3582
19029THY    CP163026   7.562   8.965   2.679 -0.4449 -0.5850 -0.2575
19029THY    HP163027   7.498   8.889   2.634  2.8461  0.8132 -4.1857
19029THY    CP263028   7.693   9.003   2.594  1.1584  0.9597  0.9013
19029THY    HP263029   7.757   9.081   2.637  0.8278 -0.0295  1.7405
19029THY    HP363030   7.644   9.047   2.507 -1.0124  0.7583 -1.6134
19029THY    HP463031   7.751   8.915   2.564 -0.9612  0.3452 -0.3670
19029THY    CP363032   7.478   9.099   2.698  0.6195 -0.5587 -0.1312
19029THY    HP563033   7.418   9.132   2.612 -4.6895  3.0296  0.8521
19029THY    HP663034   7.543   9.183   2.724  0.5970 -1.2107  0.0950
19029THY    HP763035   7.402   9.087   2.776  2.6812  1.4878 -0.5899
19029THY    CA363036   7.626   8.995   2.925  0.1749  0.5213  0.5144
19029THY    HA363037   7.609   9.102   2.915 -0.5509 -1.9542  0.2209
19029THY    CA463038   7.667   8.938   3.049  0.9206 -0.1448 -0.4204
19029THY    HA463039   7.673   9.000   3.137  1.4543 -1.5033  1.5686
19029THY    CA563040   7.684   8.798   3.065 -0.1808 -0.4707  0.7721
19029THY    CM163041   7.708   8.736   3.201  0.1899 -0.2879  0.1406
19029THY    HM163042   7.760   8.640   3.190 -0.6876 -3.2917 -0.1002
19029THY    HM263043   7.612   8.718   3.250 -0.3805 -1.5163 -0.3244
19029THY    HM363044   7.754   8.807   3.271 -0.7336  2.0993 -1.4786
19029THY    CA663045   7.662   8.717   2.958  0.9218  0.0651 -0.0453
19029THY    HA663046   7.671   8.610   2.973  0.2410 -0.4024 -0.1718
19030THY      O63047   6.335   7.869   3.647  0.0677 -0.1086  0.3442
19030THY     HO63048   6.260   7.915   3.604  0.7260 -0.0363  1.5332
19030THY    CA163049   6.290   7.765   3.711  0.6092  0.2231  0.0823
19030THY    CA263050   6.219   7.777   3.834 -0.4153 -0.1988 -0.0739
19030THY    CP163051   6.201   7.915   3.904  0.0190  0.2530  0.3892
19030THY    HP163052   6.175   7.988   3.827 -2.2367 -0.5600 -1.1537
19030THY    CP263053   6.327   7.961   3.982 -0.8768 -0.0536  0.3422
19030THY    HP263054   6.319   7.946   4.090 -0.2841 -0.1768 -1.0586
19030THY    HP363055   6.341   8.068   3.960 -0.8223 -4.8567 -0.4281
19030THY    HP463056   6.421   7.922   3.941 -1.1780  1.1491 -1.8039
19030THY    CP363057   6.076   7.929   3.993  0.0239 -0.7302 -0.3946
19030THY    HP563058   6.099   7.873   4.085 -1.5861  0.2155  0.4317
19030THY    HP663059   5.987   7.898   3.938  0.8473 -1.9574 -0.6714
19030THY    HP763060   6.053   8.030   4.028 -1.3473 -0.9382 -0.6189
19030THY    CA363061   6.161   7.659   3.887  0.1626 -0.0120 -0.0749
19030THY    HA363062   6.105   7.659   3.980  1.4392  0.7827 -0.2139
19030THY    CA463063   6.165   7.539   3.816  0.2651  0.4648  0.1219
19030THY    HA463064   6.109   7.450   3.844  0.2620 -0.4556 -0.1822
19030THY    CA563065   6.233   7.528   3.696  0.8013 -0.6143  0.1708
19030THY    CM163066   6.253   7.394   3.623 -1.0368 -0.0549  0.0236
19030THY    HM163067   6.294   7.321   3.694 -1.8802 -0.5357 -0.9474
19030THY    HM263068   6.334   7.416   3.553 -2.1872 -1.4080  0.0855
19030THY    HM363069   6.173   7.345   3.567  0.8572 -0.6669 -2.5853
19030THY    CA663070   6.291   7.638   3.641 -0.5741  0.1757 -0.8167
19030THY    HA663071   6.340   7.640   3.544  0.3699  0.6295 -1.2304
19031THY      O63072   3.065   5.434   4.690  0.8661  0.2279  0.1587
19031THY     HO63073   3.086   5.528   4.702  2.2839 -1.4554  0.1216
19031THY    CA163074   2.967   5.405   4.781 -0.2004  1.3474  0.1635
19031THY    CA263075   2.922   5.276   4.788  0.0194 -0.3938  0.1463
19031THY    CP163076   2.979   5.164   4.709  0.3529  0.4617  0.5544
19031THY    HP163077   3.022   5.193   4.612 -0.2509 -0.7849 -2.3024
19031THY    CP263078   2.872   5.067   4.651 -0.7057 -0.2471  0.1359
19031THY    HP263079   2.812   5.018   4.728 -0.7717  0.4551  1.2663
19031THY    HP363080   2.916   4.983   4.597 -0.8118  1.8519 -1.3615
19031THY    HP463081   2.799   5.115   4.586 -0.0346 -1.8265 -0.9210
19031THY    CP363082   3.078   5.085   4.794 -0.3553 -0.8057 -0.9966
19031THY    HP563083   3.141   5.009   4.747 -0.7030 -1.0426 -1.1415
19031THY    HP663084   3.027   5.044   4.882  0.9011 -1.4937 -4.3003
19031THY    HP763085   3.143   5.160   4.841  1.6495  0.6978 -3.4879
19031THY    CA363086   2.818   5.254   4.875 -0.3062  0.2517  0.3195
19031THY    HA363087   2.799   5.151   4.903 -1.2355 -0.7507  0.1971
19031THY    CA463088   2.757   5.358   4.946 -0.1183  0.1463 -0.5685
19031THY    HA463089   2.679   5.320   5.011  0.6740  1.1350 -0.5419
19031THY    CA563090   2.794   5.491   4.914  0.4470  0.1633 -0.0277
19031THY    CM163091   2.715   5.610   4.961  0.6820  0.5836 -0.2248
19031THY    HM163092   2.608   5.586   4.963  0.3202 -4.9972 -0.4656
19031THY    HM263093   2.737   5.695   4.895  1.6217  3.3197  1.7888
19031THY    HM363094   2.746   5.645   5.060  0.4663  0.4056  0.4984
19031THY    CA663095   2.884   5.511   4.814 -0.5851  0.1051  0.4200
19031THY    HA663096   2.896   5.613   4.780  3.6358  0.8369  0.3591
19032THY      O63097   2.020   8.533   5.460  0.0177  0.2660  0.3683
19032THY     HO63098   2.089   8.464   5.471 -0.1332 -1.4087 -0.0794
19032THY    CA163099   1.922   8.455   5.416 -0.0105 -0.0512 -0.4061
19032THY    CA263100   1.793   8.511   5.382  0.5143  0.2923 -0.4091
19032THY    CP163101   1.767   8.663   5.370  0.3516  0.9531  0.1973
19032THY    HP163102   1.858   8.722   5.389 -0.4033  2.0644  1.0538
19032THY    CP263103   1.668   8.715   5.471 -0.5581 -0.3116  0.9485
19032THY    HP263104   1.697   8.668   5.565  0.5195 -0.7258  0.7452
19032THY    HP363105   1.570   8.671   5.452 -0.2410 -0.7062  0.4098
19032THY    HP463106   1.662   8.824   5.483  1.5114  1.7026  0.9319
19032THY    CP363107   1.728   8.715   5.232 -1.1419 -0.1107 -0.0304
19032THY    HP563108   1.694   8.818   5.248  2.1389  1.2451  0.9890
19032THY    HP663109   1.641   8.664   5.191 -0.7372  1.2308 -1.9365
19032THY    HP763110   1.807   8.709   5.156 -1.6739 -0.6759  0.1026
19032THY    CA363111   1.686   8.424   5.365  0.3857 -0.5044 -0.4340
19032THY    HA363112   1.586   8.457   5.340 -0.0104  0.3530 -0.9710
19032THY    CA463113   1.703   8.286   5.379 -0.0045  0.2594 -0.5001
19032THY    HA463114   1.617   8.219   5.377 -1.0875  1.6715  0.7658
19032THY    CA563115   1.828   8.230   5.407  0.1307 -0.4517 -0.6747
19032THY    CM163116   1.835   8.086   5.416 -0.6622  0.1201 -0.8011
19032THY    HM163117   1.932   8.036   5.420 -0.7473 -0.1169 -0.9895
19032THY    HM263118   1.793   8.044   5.323 -0.0146  0.9270 -3.3909
19032THY    HM363119   1.776   8.038   5.494 -0.8536 -0.7790 -2.0711
19032THY    CA663120   1.941   8.312   5.419 -0.4830 -0.3183  0.3882
19032THY    HA663121   2.032   8.261   5.451 -2.1240  0.7336 -2.0449
19033THY      O63122   4.902   0.798   2.280  0.4000 -0.7685  0.1733
19033THY     HO63123   4.834   0.815   2.213 -2.8972  1.1896 -3.7301
19033THY    CA163124   5.003   0.876   2.262 -0.5148 -0.6928 -0.3542
19033THY    CA263125   5.139   0.839   2.305 -0.0527 -0.3803 -0.0952
19033THY    CP163126   5.164   0.697   2.368 -0.3262 -0.2864 -0.2803
19033THY    HP163127   5.064   0.660   2.396 -0.4646 -0.0841  0.2347
19033THY    CP263128   5.263   0.707   2.484  0.2847 -0.1668  0.1362
19033THY    HP263129   5.248   0.798   2.542  2.1871  0.9646 -0.2277
19033THY    HP363130   5.361   0.703   2.435  0.1100 -0.7332  1.8196
19033THY    HP463131   5.242   0.620   2.547 -0.2395 -0.7134 -0.1392
19033THY    CP363132   5.218   0.605   2.267  0.5142  0.8380 -0.1788
19033THY    HP563133   5.319   0.638   2.241  0.6354  0.9518 -0.4606
19033THY    HP663134   5.158   0.601   2.175  0.8526  0.5453  0.9716
19033THY    HP763135   5.221   0.505   2.311  1.8220  1.3970  0.0901
19033THY    CA363136   5.235   0.942   2.316  0.6723  0.1618  0.8778
19033THY    HA363137   5.333   0.925   2.360 -0.6990  2.9592 -0.3599
19033THY    CA463138   5.195   1.076   2.273 -0.4006  0.4197  0.3743
19033THY    HA463139   5.255   1.161   2.303 -2.5649  1.2065  1.7068
19033THY    CA563140   5.072   1.105   2.217  0.4126 -0.0415  0.0636
19033THY    CM163141   5.038   1.255   2.190 -0.4423  0.5912  0.4042
19033THY    HM163142   4.949   1.255   2.127  2.3952 -3.9172 -1.9676
19033THY    HM263143   5.119   1.310   2.139 -2.7556  0.7255  4.3674
19033THY    HM363144   5.014   1.298   2.288  1.2559  1.2619 -0.0804
19033THY    CA663145   4.971   1.009   2.219 -0.2050 -0.6528 -0.4280
19033THY    HA663146   4.866   1.036   2.220  0.1296 -1.7594  1.0527
19034THY      O63147   5.959   8.175   5.166 -0.7800  0.0897 -0.7060
19034THY     HO63148   5.898   8.219   5.228  2.0694  1.8739  1.0627
19034THY    CA163149   6.018   8.076   5.241  0.0838 -0.1643  0.2164
19034THY    CA263150   6.140   8.028   5.201 -0.3404 -0.2419 -0.8250
19034THY    CP163151   6.208   8.081   5.065 -0.2014 -0.3889  0.6054
19034THY    HP163152   6.184   8.187   5.050 -0.3096 -2.3760  0.3355
19034THY    CP263153   6.168   7.986   4.951  0.2069  0.2611  0.1278
19034THY    HP263154   6.216   8.023   4.860  0.1149 -0.3021 -1.1068
19034THY    HP363155   6.059   7.979   4.945  0.1393  0.4850  0.8356
19034THY    HP463156   6.198   7.882   4.967  1.1562 -1.2703  0.1339
19034THY    CP363157   6.358   8.104   5.083  0.2675  0.1786  0.9139
19034THY    HP563158   6.403   8.154   4.996 -1.0256 -1.2663 -0.3373
19034THY    HP663159   6.396   8.001   5.087 -0.9796 -0.7731  0.3931
19034THY    HP763160   6.386   8.158   5.173 -0.5072 -0.2322  2.0289
19034THY    CA363161   6.200   7.929   5.281 -0.6731  0.4826  0.4478
19034THY    HA363162   6.298   7.890   5.256 -0.5714 -0.2974  1.1799
19034THY    CA463163   6.140   7.888   5.398  0.8997  0.0233  0.1608
19034THY    HA463164   6.195   7.813   5.454  1.4358 -1.1099 -0.3209
19034THY    CA563165   6.010   7.936   5.440 -0.6764 -0.0721  0.0789
19034THY    CM163166   5.946   7.883   5.570  0.0994 -0.3265  0.5429
19034THY    HM163167   6.000   7.924   5.656 -0.7717  0.2323  0.5352
19034THY    HM263168   5.948   7.774   5.584 -0.3714  1.4994  0.7455
19034THY    HM363169   5.841   7.914   5.562 -0.8480  0.5212 -2.1970
19034THY    CA663170   5.951   8.031   5.359 -1.3259  0.1304 -0.5343
19034THY    HA663171   5.855   8.075   5.384 -2.0150  0.9170 -2.3807
19035THY      O63172   1.138   6.212   6.539 -0.4904 -0.5127  0.4413
19035THY     HO63173   1.086   6.293   6.549 -1.0879  0.1110  0.0018
19035THY    CA163174   1.055   6.102   6.549  0.5588  0.3986  0.2257
19035THY    CA263175   1.079   5.975   6.494  0.3643 -0.2232  0.7445
19035THY    CP163176   1.208   5.952   6.427 -0.5098 -0.0144  0.0992
19035THY    HP163177   1.260   6.048   6.415 -1.6827 -1.3979  0.5916
19035THY    CP263178   1.190   5.912   6.280 -0.3490 -0.5301  0.2518
19035THY    HP263179   1.125   5.823   6.277 -2.6830  0.0083  1.8375
19035THY    HP363180   1.281   5.869   6.239 -0.9574 -0.3421 -1.3073
19035THY    HP463181   1.139   5.993   6.228 -1.7707  0.3264 -0.0415
19035THY    CP363182   1.296   5.863   6.510 -0.1257  0.6753  0.7442
19035THY    HP563183   1.339   5.913   6.597 -0.4008  0.2790  1.6895
19035THY    HP663184   1.378   5.824   6.449  0.4848  0.5963  2.1159
19035THY    HP763185   1.244   5.774   6.550  0.7564  1.3566  0.5260
19035THY    CA363186   0.986   5.869   6.502 -0.9129 -0.3472 -0.0973
19035THY    HA363187   1.006   5.777   6.448  1.4917 -1.2335  0.8822
19035THY    CA463188   0.865   5.884   6.580  0.0220  0.8335 -0.1308
19035THY    HA463189   0.795   5.801   6.595 -1.6586 -2.8818  0.4282
19035THY    CA563190   0.842   6.010   6.640  0.6856  0.6185  0.1521
19035THY    CM163191   0.725   6.028   6.729  0.6246  0.2600 -0.3741
19035THY    HM163192   0.756   6.013   6.833  2.0567 -0.1470 -0.3795
19035THY    HM263193   0.647   5.954   6.710  1.0993  1.5166 -1.2355
19035THY    HM363194   0.674   6.125   6.723 -0.2870 -0.5171 -0.8913
19035THY    CA663195   0.935   6.117   6.625 -0.2061  0.3550  0.2340
19035THY    HA663196   0.922   6.206   6.685 -0.6640 -1.4925  1.4841
19036THY      O63197   0.710   1.625   4.394  0.0412 -0.6241 -0.3123
19036THY     HO63198   0.701   1.627   4.491 -2.8954 -0.8151 -0.2507
19036THY    CA163199   0.815   1.556   4.351  0.4885  0.4049  0.3849
19036THY    CA263200   0.844   1.430   4.407  0.7652 -0.6477  0.2046
19036THY    CP163201   0.755   1.378   4.524 -0.1453 -0.0966  0.6696
19036THY    HP163202   0.722   1.457   4.593  0.1421  0.1531  0.5776
19036THY    CP263203   0.835   1.270   4.613 -0.0099  0.4934  0.4503
19036THY    HP263204   0.790   1.242   4.709  1.5807  0.3768 -3.1584
19036THY    HP363205   0.922   1.332   4.637  0.7666 -0.2891 -0.2891
19036THY    HP463206   0.865   1.179   4.559 -0.6463  1.6593 -0.4755
19036THY    CP363207   0.617   1.317   4.479 -0.6033  0.4016  0.4697
19036THY    HP563208   0.555   1.287   4.565 -0.2775  1.1643  1.8990
19036THY    HP663209   0.635   1.237   4.407  1.0401 -1.2936  2.2495
19036THY    HP763210   0.564   1.400   4.430 -1.3837  1.6330  0.7388
19036THY    CA363211   0.953   1.348   4.360  0.4858 -0.2184 -0.1774
19036THY    HA363212   0.983   1.252   4.401  1.3427  0.7481  0.4891
19036THY    CA463213   1.039   1.398   4.258  0.0103 -1.0908 -0.8257
19036THY    HA463214   1.121   1.337   4.221  0.4342 -0.6270 -0.5473
19036THY    CA563215   1.013   1.531   4.204  0.3127 -0.0427  0.0393
19036THY    CM163216   1.093   1.587   4.084  0.4385 -1.0583  1.0072
19036THY    HM163217   1.069   1.522   3.999 -0.3851  0.1150 -0.2530
19036THY    HM263218   1.201   1.588   4.102  0.1678  0.8990 -0.7128
19036THY    HM363219   1.063   1.691   4.067  1.3949 -1.3499  1.2522
19036THY    CA663220   0.900   1.599   4.247  0.7004  0.4587  0.0646
19036THY    HA663221   0.868   1.687   4.192 -1.4402  0.2075 -0.8050
19037THY      O63222   4.458   7.077   4.598  0.2706 -0.1141 -0.1369
19037THY     HO63223   4.498   7.013   4.536 -1.9668  0.4143 -2.1564
19037THY    CA163224   4.321   7.076   4.586 -0.0932  0.1089  0.0195
19037THY    CA263225   4.240   7.155   4.670 -0.0176 -0.4200  0.1232
19037THY    CP163226   4.307   7.260   4.760  0.6658 -0.0438 -0.9636
19037THY    HP163227   4.413   7.240   4.778  0.8706 -0.7837 -0.5775
19037THY    CP263228   4.233   7.280   4.897 -0.4411 -1.0156 -0.0129
19037THY    HP263229   4.291   7.352   4.955 -0.7375  1.3481 -1.5717
19037THY    HP363230   4.214   7.191   4.959 -1.3031 -0.3057  0.6513
19037THY    HP463231   4.141   7.338   4.885 -0.6755  1.9298  0.3445
19037THY    CP363232   4.305   7.399   4.688 -0.2513 -0.2206 -0.0481
19037THY    HP563233   4.202   7.434   4.675 -1.9707  1.6336 -3.7448
19037THY    HP663234   4.361   7.394   4.594  1.1650  0.6437 -3.0255
19037THY    HP763235   4.361   7.475   4.742  0.6007 -2.1342  0.7505
19037THY    CA363236   4.104   7.125   4.682 -0.4001 -0.4017  0.5318
19037THY    HA363237   4.046   7.184   4.751 -2.6008 -2.4609  0.8980
19037THY    CA463238   4.046   7.025   4.607  0.5190 -0.5639  0.3774
19037THY    HA463239   3.939   7.007   4.615  0.5900  1.3041  0.5634
19037THY    CA563240   4.121   6.951   4.517 -0.0200 -0.3785  0.0436
19037THY    CM163241   4.061   6.835   4.447 -0.0255 -0.1944 -0.0683
19037THY    HM163242   3.994   6.868   4.366 -1.8537  0.1495 -2.6201
19037THY    HM263243   4.001   6.788   4.525  0.5132  0.3216  0.0996
19037THY    HM363244   4.141   6.774   4.403  1.8909  1.7172  0.9416
19037THY    CA663245   4.259   6.972   4.517 -0.1927 -0.6835 -0.1883
19037THY    HA663246   4.322   6.907   4.458 -0.7531 -2.1946  0.6035
19038THY      O63247   4.608   8.897   3.383  0.4293  0.7446 -0.2072
19038THY     HO63248   4.535   8.833   3.389 -0.3327  2.8953  0.7466
19038THY    CA163249   4.565   9.004   3.315 -0.1735 -0.2124  0.0769
19038THY    CA263250   4.638   9.127   3.318 -0.2452  0.3366  0.1220
19038THY    CP163251   4.761   9.153   3.409  0.7004 -0.5835  0.1531
19038THY    HP163252   4.774   9.066   3.474  0.4147  1.1227  1.3292
19038THY    CP263253   4.764   9.268   3.507 -0.9585  0.1286 -0.0811
19038THY    HP263254   4.664   9.272   3.552 -2.2489 -2.4430 -0.8682
19038THY    HP363255   4.800   9.359   3.457  2.6243  0.3215 -1.2360
19038THY    HP463256   4.832   9.243   3.589 -0.5064 -0.5185 -1.0138
19038THY    CP363257   4.888   9.156   3.321  0.1060 -0.4611 -0.1318
19038THY    HP563258   4.967   9.110   3.380  2.0097 -0.9373  2.3255
19038THY    HP663259   4.903   9.259   3.286 -0.1203 -1.6698 -0.4834
19038THY    HP763260   4.878   9.087   3.236  1.0289 -3.0975  2.7853
19038THY    CA363261   4.587   9.234   3.243 -0.4158  0.3731  0.0336
19038THY    HA363262   4.647   9.324   3.248  0.7809  2.6877 -0.8191
19038THY    CA463263   4.478   9.210   3.159 -0.3604  0.3514 -0.0928
19038THY    HA463264   4.451   9.288   3.088  1.3765  0.1754  0.4103
19038THY    CA563265   4.413   9.096   3.158  0.3213 -0.0006 -0.7533
19038THY    CM163266   4.292   9.084   3.076  0.7863 -0.3703  0.4520
19038THY    HM163267   4.303   9.133   2.979  1.0458 -0.1927  0.7518
19038THY    HM263268   4.195   9.109   3.122 -0.3011 -1.0947 -2.0559
19038THY    HM363269   4.276   8.979   3.050 -0.9013 -1.1322  0.8601
19038THY    CA663270   4.453   8.989   3.240  0.1511  0.6613 -0.5073
19038THY    HA663271   4.393   8.901   3.259 -2.6633  0.3514  1.2399
19039THY      O63272   3.260   7.872   5.259 -0.0144  0.1263  0.4140
19039THY     HO63273   3.263   7.809   5.184 -0.3141  1.3779 -1.1644
19039THY    CA163274   3.179   7.816   5.354  0.3175  0.3524 -0.2755
19039THY    CA263275   3.127   7.904   5.448  0.1714 -0.2119 -0.2267
19039THY    CP163276   3.156   8.057   5.460  0.8140  0.3763 -0.5735
19039THY    HP163277   3.254   8.084   5.417  0.9411  0.0484 -1.5198
19039THY    CP263278   3.171   8.092   5.605 -0.1432  0.6665 -0.3584
19039THY    HP263279   3.084   8.085   5.671 -1.3977 -0.7662  0.9904
19039THY    HP363280   3.208   8.194   5.622  1.1075 -0.5358 -0.5887
19039THY    HP463281   3.247   8.023   5.644  0.1219 -0.3270 -0.6434
19039THY    CP363282   3.037   8.129   5.394 -0.7509  0.4748  0.0162
19039THY    HP563283   2.940   8.092   5.430  0.2648  3.2017 -0.2433
19039THY    HP663284   3.056   8.120   5.287  1.2227  0.7010  1.0628
19039THY    HP763285   3.043   8.235   5.421  3.1321  0.1527 -0.0044
19039THY    CA363286   3.048   7.840   5.549  0.6530 -0.4737 -0.5682
19039THY    HA363287   3.000   7.892   5.631 -0.6267 -0.6525 -1.4346
19039THY    CA463288   3.029   7.700   5.553 -0.1427 -0.1231 -0.0182
19039THY    HA463289   2.961   7.647   5.617 -1.3158 -0.3317  1.1715
19039THY    CA563290   3.082   7.628   5.449 -0.0937 -0.2507  0.7525
19039THY    CM163291   3.071   7.481   5.434  0.4277  0.1175  0.4260
19039THY    HM163292   3.164   7.431   5.406 -0.3188 -0.1896 -0.8444
19039THY    HM263293   2.985   7.448   5.375 -0.9072  2.7272 -1.1588
19039THY    HM363294   3.040   7.435   5.529  1.3604  0.4664  0.4924
19039THY    CA663295   3.164   7.684   5.356  0.0047 -0.2943 -0.3026
19039THY    HA663296   3.205   7.628   5.273  1.0735  0.0957 -0.1416
19040THY      O63297   5.586   6.742   6.028 -0.0677  0.3124  0.4100
19040THY     HO63298   5.616   6.667   6.083  2.4352  0.0988  1.1434
19040THY    CA163299   5.700   6.798   5.975 -0.0985 -0.0010  0.3299
19040THY    CA263300   5.684   6.881   5.859 -0.6257  0.3713  0.2877
19040THY    CP163301   5.550   6.921   5.799  0.2643 -0.0794  0.1592
19040THY    HP163302   5.456   6.885   5.843 -0.5616  0.0099  2.3136
19040THY    CP263303   5.531   6.865   5.659 -0.0129  0.6923  0.3847
19040THY    HP263304   5.601   6.898   5.582  0.2094  0.4853 -0.5590
19040THY    HP363305   5.430   6.872   5.614  0.3732 -0.1398  0.8562
19040THY    HP463306   5.544   6.757   5.666 -1.2585  1.4432  0.2582
19040THY    CP363307   5.530   7.079   5.804  0.4758  0.0703  0.0985
19040THY    HP563308   5.584   7.137   5.728  0.6346 -0.8108 -1.1592
19040THY    HP663309   5.558   7.115   5.904  2.5886  0.1224 -1.4741
19040THY    HP763310   5.423   7.103   5.809  0.4973 -0.6695  0.3704
19040THY    CA363311   5.802   6.943   5.803  0.0968  0.7209  0.3729
19040THY    HA363312   5.788   6.998   5.711 -0.6590 -0.0706 -1.0882
19040THY    CA463313   5.929   6.920   5.862 -0.7904 -0.7797 -0.8743
19040THY    HA463314   6.015   6.970   5.818 -1.2076 -0.3583  0.2457
19040THY    CA563315   5.943   6.833   5.979  0.4484  0.5522 -0.1688
19040THY    CM163316   6.075   6.814   6.055 -0.1376  0.9556  0.5343
19040THY    HM163317   6.077   6.887   6.137 -0.9594  1.1021  0.4017
19040THY    HM263318   6.153   6.827   5.979 -0.3017  0.6783 -0.0720
19040THY    HM363319   6.078   6.712   6.093 -0.1142  0.9942  0.5496
19040THY    CA663320   5.823   6.771   6.032 -0.2271  0.4913 -0.0879
19040THY    HA663321   5.829   6.705   6.119 -0.5266 -0.0166 -0.7975
19041THY      O63322   3.598   0.584   6.720  0.9871 -0.1070 -0.2123
19041THY     HO63323   3.692   0.569   6.740  0.5717  2.3581  0.0513
19041THY    CA163324   3.582   0.601   6.583  0.0351 -0.5066  0.2545
19041THY    CA263325   3.468   0.657   6.529 -0.4583  0.0532 -0.0116
19041THY    CP163326   3.368   0.730   6.620  0.4067  0.0967  0.3356
19041THY    HP163327   3.390   0.705   6.724  0.4663 -0.2909 -1.3444
19041THY    CP263328   3.222   0.695   6.602  0.2824  1.0350 -0.2437
19041THY    HP263329   3.185   0.748   6.513 -3.5724  1.9565 -1.0849
19041THY    HP363330   3.155   0.720   6.685 -3.0004 -1.3955 -0.1817
19041THY    HP463331   3.211   0.591   6.568  1.7371 -0.9945  0.2066
19041THY    CP363332   3.377   0.884   6.602  0.0084  0.0100  0.4786
19041THY    HP563333   3.350   0.913   6.500  0.9461 -0.0572  1.1478
19041THY    HP663334   3.478   0.912   6.633 -0.3547  0.0252  1.8058
19041THY    HP763335   3.310   0.934   6.673 -3.4057 -1.5469 -1.4772
19041THY    CA363336   3.443   0.659   6.390  0.6207  0.1596 -0.7707
19041THY    HA363337   3.348   0.686   6.345  0.4427 -1.3809 -3.5742
19041THY    CA463338   3.539   0.596   6.309  0.0699 -0.3149 -0.8290
19041THY    HA463339   3.518   0.586   6.203  0.6707 -0.5792  0.5195
19041THY    CA563340   3.654   0.537   6.368 -0.0034 -0.2817 -0.1347
19041THY    CM163341   3.754   0.463   6.282  0.4196 -0.5018 -0.1396
19041THY    HM163342   3.850   0.516   6.281  0.1101  1.1441  0.5131
19041THY    HM263343   3.713   0.464   6.181  0.6890 -0.6159  1.2824
19041THY    HM363344   3.754   0.360   6.318 -1.5415 -0.0789 -0.0268
19041THY    CA663345   3.682   0.542   6.509  0.9314  0.2990 -0.5965
19041THY    HA663346   3.769   0.503   6.560  0.0026  1.2781 -1.4314
19042THY      O63347   9.243   0.735   5.390  0.4550 -0.1458  0.2930
19042THY     HO63348   9.337   0.711   5.396  0.5766 -1.6802  0.2379
19042THY    CA163349   9.209   0.692   5.265  0.1740 -0.6651 -0.0382
19042THY    CA263350   9.095   0.615   5.238  0.0247  0.3855  0.7972
19042THY    CP163351   8.993   0.581   5.349  0.8248  0.4381  0.4436
19042THY    HP163352   9.053   0.573   5.440  0.6503  0.5145 -0.0371
19042THY    CP263353   8.908   0.452   5.345 -0.9464  0.3117 -0.9635
19042THY    HP263354   8.836   0.461   5.262  0.6715 -1.0830 -0.3913
19042THY    HP363355   8.858   0.430   5.440 -1.1801 -0.2307 -2.9574
19042THY    HP463356   8.981   0.371   5.333 -0.8962 -1.6536 -0.6841
19042THY    CP363357   8.900   0.699   5.373  0.1247  0.2099 -0.6342
19042THY    HP563358   8.821   0.677   5.446  0.4957  0.9002  0.2754
19042THY    HP663359   8.849   0.724   5.279  1.4737 -1.3013 -3.1745
19042THY    HP763360   8.961   0.784   5.403 -2.3479 -1.5655  1.9461
19042THY    CA363361   9.083   0.557   5.107  0.4073 -0.4027 -0.9306
19042THY    HA363362   8.996   0.495   5.087 -1.5093  0.7711  1.1934
19042THY    CA463363   9.185   0.582   5.013  0.2127 -0.0793  0.3333
19042THY    HA463364   9.186   0.545   4.911  2.5413 -0.5049  1.4377
19042THY    CA563365   9.298   0.660   5.049 -0.3778  0.4050  0.6181
19042THY    CM163366   9.414   0.675   4.960 -0.1755 -0.4586 -0.0168
19042THY    HM163367   9.446   0.780   4.958 -1.5589 -1.5241  0.4156
19042THY    HM263368   9.392   0.645   4.857 -2.0964  0.4734 -2.0266
19042THY    HM363369   9.500   0.614   4.990 -0.5244 -2.8509 -1.8573
19042THY    CA663370   9.308   0.710   5.176  0.1359  0.5370 -0.2475
19042THY    HA663371   9.404   0.755   5.202  0.2256 -0.7276  0.3320
19043THY      O63372   4.112   2.588   7.166  0.2534  0.0691 -0.6170
19043THY     HO63373   4.064   2.575   7.083 -1.2119  0.6715  0.6748
19043THY    CA163374   4.180   2.471   7.196 -0.5985 -0.1147  0.5404
19043THY    CA263375   4.281   2.471   7.295  0.3829  0.6917  0.3845
19043THY    CP163376   4.330   2.601   7.358  0.4407 -0.1489  0.0258
19043THY    HP163377   4.252   2.675   7.333  0.8482 -1.0831  0.1526
19043THY    CP263378   4.463   2.653   7.277 -0.0463  0.5515 -0.5957
19043THY    HP263379   4.540   2.575   7.282  0.6530  0.2345  0.0656
19043THY    HP363380   4.505   2.741   7.327 -2.9795 -0.3010  1.4184
19043THY    HP463381   4.442   2.668   7.171 -1.3500  0.9105  0.2022
19043THY    CP363382   4.355   2.599   7.513 -0.0565  0.6915  0.4049
19043THY    HP563383   4.390   2.698   7.545  1.2989 -0.1314  0.2136
19043THY    HP663384   4.419   2.517   7.548 -0.3840  0.7025  0.1491
19043THY    HP763385   4.257   2.589   7.562  0.2777  1.3778  0.4851
19043THY    CA363386   4.336   2.342   7.322 -0.4113  0.4033 -0.5154
19043THY    HA363387   4.426   2.335   7.383 -0.8907  0.9104 -2.8095
19043THY    CA463388   4.296   2.230   7.252 -0.6057 -0.6528 -0.5917
19043THY    HA463389   4.356   2.142   7.273  0.3359  1.9622  0.5703
19043THY    CA563390   4.210   2.236   7.143 -0.7932 -0.5590  0.0118
19043THY    CM163391   4.179   2.111   7.065  0.5380  0.3990  0.0583
19043THY    HM163392   4.105   2.051   7.118  0.7068  0.0683 -0.4454
19043THY    HM263393   4.264   2.046   7.038  0.7085 -2.1435  1.2302
19043THY    HM363394   4.135   2.132   6.967  1.0896 -0.6591 -3.2027
19043THY    CA663395   4.137   2.357   7.124 -0.4017 -0.4651  0.8649
19043THY    HA663396   4.053   2.367   7.056 -1.8050  1.2471  1.0855
19044THY      O63397   8.818   2.603   1.738 -0.1940  0.6315  0.4394
19044THY     HO63398   8.721   2.605   1.740 -0.2432 -1.2354  1.8948
19044THY    CA163399   8.859   2.492   1.812 -0.4271 -0.5784 -0.7879
19044THY    CA263400   9.000   2.459   1.836 -0.5440 -0.0070  0.2483
19044THY    CP163401   9.113   2.536   1.767  0.2478  0.2040 -0.3738
19044THY    HP163402   9.082   2.641   1.763  2.0049  1.1240  0.2301
19044THY    CP263403   9.132   2.490   1.626  0.6665 -0.8661 -0.0853
19044THY    HP263404   9.060   2.541   1.561 -0.9994  1.2431  0.4022
19044THY    HP363405   9.122   2.381   1.626  1.8548  2.3305 -0.3084
19044THY    HP463406   9.232   2.512   1.588  0.7872 -0.3561  0.2459
19044THY    CP363407   9.240   2.541   1.850 -0.5421 -0.0181 -1.0337
19044THY    HP563408   9.308   2.606   1.793 -0.1573  0.3652 -1.1001
19044THY    HP663409   9.274   2.440   1.872 -0.5315 -0.8934 -1.2314
19044THY    HP763410   9.226   2.592   1.946 -1.3512  0.3284 -1.8763
19044THY    CA363411   9.023   2.348   1.918 -0.4528  0.5317 -0.0950
19044THY    HA363412   9.126   2.318   1.936 -0.0341  0.9317  1.4889
19044THY    CA463413   8.918   2.277   1.972  0.0139  0.7877  0.7132
19044THY    HA463414   8.945   2.196   2.039 -4.5623 -0.2812 -2.0453
19044THY    CA563415   8.791   2.308   1.946  0.0750  0.0509 -0.2148
19044THY    CM163416   8.682   2.229   2.013 -0.5267  0.0662  0.6524
19044THY    HM163417   8.686   2.228   2.123 -1.0771  0.0966  1.1934
19044THY    HM263418   8.698   2.125   1.983 -0.3942 -2.6225  1.3831
19044THY    HM363419   8.583   2.261   1.978 -0.0649 -2.9290 -0.8730
19044THY    CA663420   8.762   2.417   1.872 -0.6916 -0.8820 -0.2926
19044THY    HA663421   8.657   2.439   1.858 -2.0963  2.3561 -3.7448
19045THY      O63422   8.121   3.355   2.689 -0.3042  0.2726 -0.1840
19045THY     HO63423   8.113   3.288   2.618 -3.7562  1.0934 -0.8319
19045THY    CA163424   8.251   3.355   2.739  0.3900 -0.6893 -0.1362
19045THY    CA263425   8.297   3.434   2.848 -0.0737 -0.5139  0.4816
19045THY    CP163426   8.197   3.533   2.910 -0.7595 -0.6191  0.6346
19045THY    HP163427   8.099   3.533   2.860 -1.5930  0.8970 -0.7348
19045THY    CP263428   8.256   3.678   2.910  0.2454 -0.5205  0.4017
19045THY    HP263429   8.345   3.687   2.973  0.2497 -0.7123  1.9199
19045THY    HP363430   8.178   3.748   2.943 -1.4386 -1.7124 -0.8320
19045THY    HP463431   8.286   3.703   2.807  2.5653  0.1159  0.4920
19045THY    CP363432   8.178   3.494   3.056  0.7039  0.3832 -0.2335
19045THY    HP563433   8.142   3.391   3.069 -0.4629  0.0251  0.1119
19045THY    HP663434   8.101   3.553   3.107  0.0104  1.3939 -1.9318
19045THY    HP763435   8.265   3.514   3.120  0.2581  1.0524 -0.3846
19045THY    CA363436   8.420   3.415   2.899 -0.2842  0.1510 -0.0773
19045THY    HA363437   8.454   3.473   2.985  1.1731  0.6578 -1.6292
19045THY    CA463438   8.501   3.315   2.846 -0.5930  0.2842  0.1623
19045THY    HA463439   8.596   3.294   2.894 -0.3343  0.8296  2.3225
19045THY    CA563440   8.460   3.234   2.739  0.6812 -0.2245 -0.1320
19045THY    CM163441   8.550   3.118   2.715  0.1303 -0.0481 -0.4703
19045THY    HM163442   8.500   3.039   2.658  3.7508  0.5390 -3.4589
19045THY    HM263443   8.601   3.083   2.805  0.7571 -0.0419  0.4080
19045THY    HM363444   8.637   3.147   2.655  1.5289  1.5322 -1.2241
19045THY    CA663445   8.333   3.254   2.687  0.8352 -0.5288  0.0419
19045THY    HA663446   8.295   3.192   2.607 -1.2397  0.7027 -0.3700
19046THY      O63447   5.561   8.100   4.630  0.3274 -0.1511  0.2126
19046THY     HO63448   5.516   8.039   4.569  0.2646 -2.4350  2.3805
19046THY    CA163449   5.693   8.097   4.610  0.1704  0.3491  1.4951
19046THY    CA263450   5.782   8.127   4.711 -0.1484 -0.2482  0.2210
19046THY    CP163451   5.727   8.191   4.835 -0.0846  0.4198 -0.0766
19046THY    HP163452   5.621   8.218   4.829  0.1375 -3.4370  0.4680
19046THY    CP263453   5.797   8.323   4.877 -0.9211 -0.6548 -0.0304
19046THY    HP263454   5.750   8.408   4.826 -2.5270  2.2038  0.9601
19046THY    HP363455   5.906   8.327   4.876 -0.8301  2.5910  1.1251
19046THY    HP463456   5.773   8.349   4.981 -1.7612 -1.6021  3.5235
19046THY    CP363457   5.732   8.086   4.945  0.5661 -0.2323  0.2867
19046THY    HP563458   5.688   8.129   5.036 -0.4681 -1.3669  1.7223
19046THY    HP663459   5.836   8.061   4.970  1.0148  0.0627  2.2687
19046THY    HP763460   5.675   7.997   4.915  0.5471  1.8757 -0.4673
19046THY    CA363461   5.925   8.106   4.691  0.2635 -0.1184  0.3298
19046THY    HA363462   5.994   8.140   4.768 -1.6718  1.1565  1.5837
19046THY    CA463463   5.964   8.046   4.568 -0.2176 -1.2910 -0.0442
19046THY    HA463464   6.071   8.040   4.548 -0.1183 -0.9071  0.3673
19046THY    CA563465   5.873   8.029   4.466 -0.8991  0.2305  0.7455
19046THY    CM163466   5.929   7.981   4.333  0.6075 -0.0178  0.9362
19046THY    HM163467   5.854   7.929   4.273 -1.4121  1.5050  1.9455
19046THY    HM263468   6.007   7.910   4.364 -0.0871 -0.4767 -0.0439
19046THY    HM363469   5.978   8.065   4.283 -1.3075 -2.0060  0.9508
19046THY    CA663470   5.736   8.034   4.492  0.2787  0.2388  0.0442
19046THY    HA663471   5.665   8.009   4.414  0.4959  0.6276 -1.9086
19047THY      O63472   3.113   6.399   7.413  0.3247  0.3027 -0.4470
19047THY     HO63473   3.169   6.474   7.440  1.1542 -0.0401 -0.9234
19047THY    CA163474   3.120   6.297   7.498  0.3415  0.1633  0.3457
19047THY    CA263475   3.031   6.187   7.488 -0.1944 -0.3943 -0.3972
19047THY    CP163476   2.922   6.183   7.376 -0.4063  0.2793 -0.5775
19047THY    HP163477   2.953   6.235   7.285 -1.3367 -0.1525 -0.7615
19047THY    CP263478   2.808   6.263   7.428 -0.1886  0.1275 -0.1658
19047THY    HP263479   2.851   6.354   7.471  0.9508 -0.4684 -0.4025
19047THY    HP363480   2.749   6.211   7.503 -0.0744 -1.3708 -2.5951
19047THY    HP463481   2.737   6.283   7.347 -0.7247  0.8007  0.6977
19047THY    CP363482   2.885   6.047   7.314  0.2546 -0.0624 -0.2962
19047THY    HP563483   2.794   6.051   7.253 -0.1609  0.5890  0.4810
19047THY    HP663484   2.863   5.966   7.384 -1.1935  1.3582  1.2362
19047THY    HP763485   2.970   6.011   7.256 -0.2572 -1.0374  0.0300
19047THY    CA363486   3.050   6.084   7.578 -0.0320 -0.2753  0.2190
19047THY    HA363487   2.972   6.008   7.582 -0.1249 -0.8871  0.2729
19047THY    CA463488   3.158   6.082   7.664 -0.5865 -0.8915 -0.2639
19047THY    HA463489   3.178   6.003   7.737  1.5357 -1.9899 -0.8284
19047THY    CA563490   3.248   6.191   7.670  0.7676 -0.4727  0.1867
19047THY    CM163491   3.359   6.199   7.766 -0.1052  0.0740  0.3252
19047THY    HM163492   3.453   6.205   7.710 -0.8410 -1.1405  1.0084
19047THY    HM263493   3.380   6.114   7.831  5.5838 -2.0892 -0.3839
19047THY    HM363494   3.349   6.291   7.825 -3.4702  1.4397 -0.7479
19047THY    CA663495   3.226   6.299   7.584 -0.4247 -0.5806 -0.6961
19047THY    HA663496   3.295   6.383   7.580  0.2150 -0.2141 -1.1912
19048THY      O63497   8.791   7.127   3.199  0.2037 -0.3821  0.5574
19048THY     HO63498   8.870   7.145   3.252  0.2098 -1.0941  2.9663
19048THY    CA163499   8.687   7.148   3.283  0.4910 -0.6879 -0.3250
19048THY    CA263500   8.564   7.192   3.239  0.5836  0.3950 -0.1419
19048THY    CP163501   8.538   7.223   3.086  0.5628 -0.6482 -0.1405
19048THY    HP163502   8.601   7.160   3.023 -0.1196 -0.0168 -1.4841
19048THY    CP263503   8.578   7.371   3.069 -0.1674  0.4743  0.2946
19048THY    HP263504   8.548   7.441   3.147  1.5365  0.0968  1.5177
19048THY    HP363505   8.540   7.406   2.973 -1.0180 -0.9607 -3.9449
19048THY    HP463506   8.687   7.370   3.058 -0.1158  0.7796  1.5906
19048THY    CP363507   8.391   7.200   3.048  1.0337 -0.5436 -0.5830
19048THY    HP563508   8.332   7.277   3.098  2.0097 -0.3669  0.0625
19048THY    HP663509   8.353   7.104   3.085 -1.7028  2.1070  1.3668
19048THY    HP763510   8.380   7.210   2.939 -0.0870 -0.5558 -1.6646
19048THY    CA363511   8.465   7.226   3.335 -0.8103  0.3113  0.1606
19048THY    HA363512   8.362   7.246   3.305 -0.7011 -1.2019 -1.2682
19048THY    CA463513   8.492   7.208   3.472 -0.0913  0.3233  0.1049
19048THY    HA463514   8.405   7.224   3.535 -0.8593 -0.7968  0.4989
19048THY    CA563515   8.613   7.157   3.516  0.4815 -0.4412  0.0125
19048THY    CM163516   8.639   7.129   3.660 -0.5354 -0.5972  0.6974
19048THY    HM163517   8.711   7.201   3.701 -0.7181 -0.8632  1.0388
19048THY    HM263518   8.679   7.028   3.661 -1.8878 -1.2542  0.1293
19048THY    HM363519   8.551   7.133   3.726 -0.7577 -0.6871 -1.6875
19048THY    CA663520   8.709   7.130   3.423 -0.4322  0.6262  0.1663
19048THY    HA663521   8.808   7.098   3.453  0.5573  1.2247  3.3619
19049THY      O63522   7.421   4.440   3.357  0.8331  1.1347 -0.7875
19049THY     HO63523   7.369   4.412   3.280  1.7268  0.4215 -0.5477
19049THY    CA163524   7.343   4.504   3.443  0.4998 -0.2977 -0.6975
19049THY    CA263525   7.379   4.582   3.559  0.5733  0.7683  1.0488
19049THY    CP163526   7.531   4.586   3.584 -0.0738  0.6855  0.4557
19049THY    HP163527   7.585   4.495   3.554 -1.5787 -0.0212 -0.2289
19049THY    CP263528   7.552   4.610   3.735 -0.6260  0.0303 -0.4435
19049THY    HP263529   7.525   4.715   3.749 -1.7966 -1.3295 -0.5386
19049THY    HP363530   7.653   4.591   3.772  0.0748  0.1232  2.8809
19049THY    HP463531   7.490   4.541   3.794 -0.1391  1.1677  0.0688
19049THY    CP363532   7.607   4.696   3.511  0.2844  0.2653  0.3765
19049THY    HP563533   7.579   4.703   3.405 -1.6249  0.7344  0.5006
19049THY    HP663534   7.715   4.676   3.511 -0.0753  0.3589 -1.8037
19049THY    HP763535   7.588   4.792   3.559  0.2984  1.2445 -0.0981
19049THY    CA363536   7.280   4.659   3.623  0.7719 -0.1828  0.8731
19049THY    HA363537   7.304   4.732   3.700 -0.6719 -0.4408  1.6591
19049THY    CA463538   7.147   4.634   3.583  0.7263  0.0214 -0.2146
19049THY    HA463539   7.071   4.697   3.629  0.7834 -1.0638  0.6771
19049THY    CA563540   7.110   4.554   3.476 -0.4430 -0.5587 -0.5975
19049THY    CM163541   6.965   4.537   3.434  0.0532 -0.5456 -0.9773
19049THY    HM163542   6.936   4.620   3.368  0.1480  0.0291 -0.4796
19049THY    HM263543   6.897   4.568   3.514  0.0892 -1.2674  1.1954
19049THY    HM363544   6.941   4.441   3.388  2.1706  1.2200 -2.4625
19049THY    CA663545   7.210   4.494   3.405 -0.3685  1.0160  0.1937
19049THY    HA663546   7.178   4.424   3.328  0.5530 -0.2816  1.1589
19050THY      O63547   4.446   7.525   6.737 -0.0867  0.0319 -0.3742
19050THY     HO63548   4.445   7.467   6.659  0.4325 -2.0439  2.1809
19050THY    CA163549   4.337   7.495   6.807 -0.0786 -0.1301  0.0258
19050THY    CA263550   4.329   7.510   6.952 -0.2075 -0.3925  0.6573
19050THY    CP163551   4.440   7.585   7.013  0.2005 -0.9048  0.8541
19050THY    HP163552   4.537   7.557   6.972  0.5081  1.5669 -2.2875
19050THY    CP263553   4.455   7.538   7.165  0.0034 -0.3521  0.4281
19050THY    HP263554   4.552   7.542   7.215  1.4326 -2.9139 -0.3784
19050THY    HP363555   4.433   7.430   7.164  0.8177  2.4906  0.1364
19050THY    HP463556   4.391   7.592   7.236  1.1355  2.0015 -1.1280
19050THY    CP363557   4.413   7.736   7.004 -0.2155  0.4263 -0.6181
19050THY    HP563558   4.443   7.774   6.906  0.3752  0.6265 -0.5619
19050THY    HP663559   4.484   7.794   7.065  0.0337  0.7557 -1.2527
19050THY    HP763560   4.308   7.761   7.026 -0.6157 -0.6591 -1.3032
19050THY    CA363561   4.207   7.462   7.019 -0.4973 -0.0895 -0.6364
19050THY    HA363562   4.192   7.475   7.125  0.1071  0.2898 -2.6226
19050THY    CA463563   4.112   7.395   6.944  0.3126  0.1736  0.2944
19050THY    HA463564   4.021   7.362   6.994  0.7760  0.2846 -0.8862
19050THY    CA563565   4.121   7.385   6.809  0.3733 -0.7948  0.2114
19050THY    CM163566   4.018   7.306   6.737  0.1398 -0.2014  0.3426
19050THY    HM163567   3.947   7.263   6.809 -0.6538  0.7457  3.0675
19050THY    HM263568   4.065   7.229   6.674 -1.4191 -0.3553 -0.5281
19050THY    HM363569   3.957   7.375   6.678 -0.4716  0.5098  0.4298
19050THY    CA663570   4.229   7.437   6.737 -0.2147 -0.2568 -0.1310
19050THY    HA663571   4.237   7.421   6.630  0.7691 -0.1613 -0.3664
19051THY      O63572   4.582   6.917   4.400 -0.9156  0.5689 -0.1220
19051THY     HO63573   4.644   6.858   4.445 -1.3495  1.6682  0.2290
19051THY    CA163574   4.636   6.942   4.276 -0.5372  0.3672 -0.0739
19051THY    CA263575   4.567   6.993   4.174 -0.2619 -0.3229  0.4090
19051THY    CP163576   4.426   7.045   4.192 -0.3484  0.3685 -0.6485
19051THY    HP163577   4.398   7.051   4.298  0.3431  0.4740  3.0374
19051THY    CP263578   4.324   6.960   4.109 -0.0460 -0.7883  0.4354
19051THY    HP263579   4.345   6.982   4.004 -1.7201 -1.3150 -0.3641
19051THY    HP363580   4.217   6.982   4.114 -0.3821 -3.5392 -0.2597
19051THY    HP463581   4.342   6.853   4.128 -0.1867 -0.9168  0.3887
19051THY    CP363582   4.432   7.195   4.148 -0.2973 -0.3310 -0.5229
19051THY    HP563583   4.327   7.227   4.156  0.1034  3.3108  0.3327
19051THY    HP663584   4.463   7.203   4.043 -1.9454 -0.7384  1.4069
19051THY    HP763585   4.498   7.257   4.209 -0.7967  0.1400 -0.4448
19051THY    CA363586   4.629   6.989   4.045 -0.8889 -0.1506  0.7006
19051THY    HA363587   4.575   7.016   3.955 -1.1873 -0.8979 -2.0348
19051THY    CA463588   4.759   6.928   4.032  0.3905  0.0751  0.3528
19051THY    HA463589   4.805   6.915   3.935  1.1344  0.4945 -0.1815
19051THY    CA563590   4.827   6.879   4.141  0.0856 -0.4087  0.0830
19051THY    CM163591   4.971   6.838   4.134 -0.5927  0.4216 -0.2564
19051THY    HM163592   4.995   6.752   4.197  0.1821 -0.2060 -0.5068
19051THY    HM263593   5.031   6.925   4.164 -0.1125  2.0160 -1.1060
19051THY    HM363594   4.999   6.807   4.033 -1.3546  0.7944 -2.3242
19051THY    CA663595   4.766   6.891   4.269 -0.2106 -0.5469 -0.6531
19051THY    HA663596   4.820   6.869   4.361  1.0259 -0.7365  1.3342
19052THY      O63597   2.166   4.409   7.065  0.1630  0.4436  0.0136
19052THY     HO63598   2.259   4.387   7.084  0.5082  0.7457  1.6334
19052THY    CA163599   2.128   4.342   6.958 -0.5754 -0.2196  0.3958
19052THY    CA263600   1.993   4.308   6.939  0.8890 -0.0113 -0.4290
19052THY    CP163601   1.882   4.358   7.030 -0.0603 -0.1566  0.2973
19052THY    HP163602   1.932   4.417   7.108  0.6346 -0.0538 -0.4188
19052THY    CP263603   1.810   4.239   7.097 -0.6286 -0.1285  0.7263
19052THY    HP263604   1.895   4.173   7.122  1.7316 -2.0310  2.8121
19052THY    HP363605   1.754   4.176   7.027 -0.7455 -0.5784  1.3240
19052THY    HP463606   1.745   4.264   7.181  2.1755  2.6079 -0.5436
19052THY    CP363607   1.770   4.442   6.958 -0.3124  0.7100  1.0111
19052THY    HP563608   1.707   4.458   7.046 -2.1546  0.5121 -3.5857
19052THY    HP663609   1.701   4.389   6.892  2.7808 -1.1144 -1.0573
19052THY    HP763610   1.797   4.535   6.907 -1.7322 -3.9725 -0.8594
19052THY    CA363611   1.957   4.228   6.823 -0.5411 -0.2492  0.1601
19052THY    HA363612   1.854   4.200   6.803 -1.1571  2.9446 -0.1755
19052THY    CA463613   2.062   4.188   6.732  0.2013 -0.0846 -0.2487
19052THY    HA463614   2.039   4.122   6.649  1.4467  0.6856 -1.7330
19052THY    CA563615   2.195   4.223   6.755 -0.3339  0.0933 -0.6155
19052THY    CM163616   2.302   4.189   6.662 -0.3209 -0.1369  0.3481
19052THY    HM163617   2.363   4.110   6.707  0.1692 -0.1824  0.6942
19052THY    HM263618   2.356   4.283   6.645  1.1079  3.9410  0.4392
19052THY    HM363619   2.263   4.139   6.572  3.3205 -0.5604 -2.1061
19052THY    CA663620   2.228   4.291   6.877 -0.3971 -0.2168 -0.4391
19052THY    HA663621   2.330   4.318   6.900 -1.1183  0.0496  2.3819
19053THY      O63622   7.529   6.733   3.840 -0.2181  0.8134 -0.0855
19053THY     HO63623   7.475   6.811   3.863 -0.3746  0.4977 -0.0962
19053THY    CA163624   7.658   6.768   3.862 -0.1981  0.0228 -0.2021
19053THY    CA263625   7.771   6.686   3.825 -0.0547 -0.4936 -0.2220
19053THY    CP163626   7.754   6.555   3.755 -0.0246  0.1492 -0.3714
19053THY    HP163627   7.649   6.538   3.731  0.1152 -1.9481  1.3037
19053THY    CP263628   7.820   6.439   3.826 -0.1723  0.4448 -0.1216
19053THY    HP263629   7.815   6.443   3.936 -0.9100  0.4358 -0.5151
19053THY    HP363630   7.926   6.443   3.802 -0.1801  0.3097 -0.6662
19053THY    HP463631   7.768   6.349   3.792 -0.5121  1.1147 -0.1918
19053THY    CP363632   7.830   6.567   3.618 -0.7894  0.0826  0.4299
19053THY    HP563633   7.787   6.630   3.540 -0.3572 -2.5844 -2.3295
19053THY    HP663634   7.834   6.469   3.568 -0.5130  0.1330  0.4159
19053THY    HP763635   7.936   6.586   3.637 -0.5031  1.3705 -1.9694
19053THY    CA363636   7.894   6.723   3.883 -0.0386 -0.6956  0.5483
19053THY    HA363637   7.976   6.652   3.886 -0.5014  0.1609  0.0375
19053THY    CA463638   7.900   6.839   3.962  0.0237 -0.5340 -0.0173
19053THY    HA463639   7.998   6.859   4.004  0.4328 -1.9222  1.0372
19053THY    CA563640   7.790   6.923   3.991 -0.5824  0.0360  0.0128
19053THY    CM163641   7.801   7.042   4.086  0.2351 -0.2163  0.4043
19053THY    HM163642   7.739   7.126   4.053 -0.4733 -0.1143 -0.0758
19053THY    HM263643   7.905   7.075   4.101 -0.1651 -0.6701  1.9514
19053THY    HM363644   7.765   7.008   4.183  1.3740 -0.4960 -1.7688
19053THY    CA663645   7.667   6.885   3.932 -0.0184 -0.2766 -0.3945
19053THY    HA663646   7.578   6.943   3.956 -0.5825 -0.4909 -1.1414
19054THY      O63647   1.097   2.161   2.330 -0.2619  0.2112  0.5557
19054THY     HO63648   1.193   2.169   2.338  0.0397 -2.9230  1.1487
19054THY    CA163649   1.066   2.027   2.296  0.4748  0.4755 -0.3384
19054THY    CA263650   0.946   1.987   2.225 -0.5169  0.2776  0.0891
19054THY    CP163651   0.847   2.087   2.163 -0.3264 -0.4324 -0.3301
19054THY    HP163652   0.893   2.185   2.181  0.4969 -0.2422 -0.7463
19054THY    CP263653   0.714   2.094   2.240 -0.1439  0.0277 -0.0150
19054THY    HP263654   0.666   1.996   2.232 -1.1400  2.1214  0.2429
19054THY    HP363655   0.641   2.166   2.201  2.2029  0.7257  2.9482
19054THY    HP463656   0.715   2.127   2.344 -2.1426  0.3086 -0.6633
19054THY    CP363657   0.832   2.069   2.007 -0.1698  0.2433 -0.1388
19054THY    HP563658   0.772   1.979   1.987 -0.0403  0.0691 -0.1873
19054THY    HP663659   0.930   2.065   1.957 -0.0126  0.5116  0.2634
19054THY    HP763660   0.792   2.161   1.964  2.1820  2.2261  1.9856
19054THY    CA363661   0.926   1.846   2.207 -0.7211 -0.3954  0.2414
19054THY    HA363662   0.831   1.805   2.173 -0.8062  0.6278 -0.4386
19054THY    CA463663   1.014   1.752   2.267  0.6495 -0.2897 -0.0826
19054THY    HA463664   1.001   1.645   2.268  2.0193  0.3361 -0.2605
19054THY    CA563665   1.118   1.789   2.342  0.0946 -0.3482 -0.0446
19054THY    CM163666   1.204   1.683   2.410 -1.0774  0.0930 -0.0776
19054THY    HM163667   1.140   1.599   2.438  0.8488  0.4566 -1.4954
19054THY    HM263668   1.263   1.715   2.497  0.1947 -0.5331 -0.6521
19054THY    HM363669   1.281   1.651   2.339 -0.7482 -0.1579  1.2109
19054THY    CA663670   1.141   1.929   2.359  0.3667 -0.6934  0.0161
19054THY    HA663671   1.212   1.946   2.439 -1.7277  1.5565 -1.1675
19055THY      O63672   4.547   2.960   3.209 -0.2468  0.0135 -0.5974
19055THY     HO63673   4.549   2.967   3.306 -2.5416  0.0029  2.7464
19055THY    CA163674   4.423   2.918   3.174  0.3250  0.1510  0.0188
19055THY    CA263675   4.378   2.919   3.044 -0.0570 -0.0095  0.0192
19055THY    CP163676   4.460   2.967   2.924  0.1902 -0.0572 -0.1941
19055THY    HP163677   4.558   2.994   2.965  0.5253 -1.3490  0.6682
19055THY    CP263678   4.400   3.099   2.869  0.0818  0.1210  0.6519
19055THY    HP263679   4.452   3.136   2.779 -0.2813 -0.3029  0.1460
19055THY    HP363680   4.402   3.173   2.949 -0.3395  1.0061 -0.2749
19055THY    HP463681   4.298   3.071   2.841  0.4911 -0.5916 -0.1758
19055THY    CP363682   4.477   2.868   2.812  0.1340 -0.5500 -0.2436
19055THY    HP563683   4.560   2.911   2.755 -0.7192 -1.2251  0.5348
19055THY    HP663684   4.387   2.868   2.749 -1.3348  1.3862  2.0490
19055THY    HP763685   4.483   2.762   2.839 -1.4027 -1.5934 -0.6316
19055THY    CA363686   4.248   2.869   3.021  0.7254  1.0207  0.3264
19055THY    HA363687   4.204   2.868   2.922 -0.4470  1.5202 -0.7264
19055THY    CA463688   4.167   2.817   3.126 -0.4638 -0.5917  0.1896
19055THY    HA463689   4.066   2.784   3.105  0.2081 -3.6114 -0.2708
19055THY    CA563690   4.215   2.827   3.252 -0.2339 -0.6736 -0.9210
19055THY    CM163691   4.130   2.809   3.372  0.0783 -0.4673 -0.8435
19055THY    HM163692   4.029   2.780   3.339  0.2149 -2.1032  0.4364
19055THY    HM263693   4.134   2.894   3.441 -0.1000 -1.8876  0.3513
19055THY    HM363694   4.176   2.728   3.430 -0.6101  0.5760 -0.5143
19055THY    CA663695   4.346   2.879   3.276 -0.0403  1.1955  0.1968
19055THY    HA663696   4.381   2.868   3.378  0.5573  0.8534 -1.3572
19056THY      O63697   9.013   2.480   7.505  0.1146  0.0217  0.3218
19056THY     HO63698   9.048   2.526   7.582 -1.5148  1.8913 -1.3476
19056THY    CA163699   8.952   2.367   7.554 -0.4798 -0.1841  0.1496
19056THY    CA263700   8.918   2.259   7.462  0.4735 -0.0152 -0.5275
19056THY    CP163701   8.931   2.278   7.313 -0.5714  0.4004  0.0890
19056THY    HP163702   8.946   2.384   7.291  2.1174  0.8882 -0.1147
19056THY    CP263703   8.815   2.231   7.237  0.0573  0.5959  0.0488
19056THY    HP263704   8.733   2.285   7.286 -0.2906 -0.1064  0.1674
19056THY    HP363705   8.803   2.123   7.223  1.9285  0.9616 -0.2389
19056THY    HP463706   8.817   2.272   7.136  0.7494  0.5111 -0.1777
19056THY    CP363707   9.056   2.202   7.257  0.2611 -0.2828  0.5258
19056THY    HP563708   9.082   2.244   7.159 -0.5102 -0.7489 -0.0491
19056THY    HP663709   9.016   2.103   7.233 -3.3180  0.4971  1.6443
19056THY    HP763710   9.151   2.202   7.312  0.7146 -1.0311 -0.4169
19056THY    CA363711   8.854   2.148   7.516  0.3830  0.5966  0.7549
19056THY    HA363712   8.814   2.069   7.453  0.6912  0.6087  0.5895
19056THY    CA463713   8.827   2.142   7.654  0.0345 -0.0494 -0.0324
19056THY    HA463714   8.763   2.061   7.688 -2.8491 -0.4997  1.9252
19056THY    CA563715   8.860   2.249   7.745  0.3514  0.5706  0.0946
19056THY    CM163716   8.793   2.254   7.876  0.3886 -0.0059  0.4146
19056THY    HM163717   8.696   2.304   7.864 -0.2609 -1.0149 -1.0288
19056THY    HM263718   8.858   2.297   7.953  0.2180  1.2274 -1.4267
19056THY    HM363719   8.779   2.154   7.917 -3.3812  0.8831  1.1609
19056THY    CA663720   8.926   2.365   7.693  0.0433 -0.3648 -0.1645
19056THY    HA663721   8.954   2.454   7.748 -1.0715  0.5223 -0.3342
19057THY      O63722   8.434   3.142   5.189 -0.5028 -0.3840 -0.0135
19057THY     HO63723   8.357   3.115   5.137  1.1347 -1.2686 -3.5433
19057THY    CA163724   8.438   3.050   5.291  0.2433 -0.5044  0.5711
19057THY    CA263725   8.545   3.042   5.375 -0.4074 -0.6421 -0.6234
19057THY    CP163726   8.658   3.145   5.358  0.2052  0.3527 -0.1886
19057THY    HP163727   8.670   3.180   5.255  1.8699  0.0740 -1.4641
19057THY    CP263728   8.785   3.085   5.408 -0.0443 -0.3255 -0.0407
19057THY    HP263729   8.863   3.154   5.375  0.2917  0.4095 -0.0601
19057THY    HP363730   8.807   2.986   5.365 -0.6018  0.2729 -0.4313
19057THY    HP463731   8.799   3.081   5.517  0.8907 -0.3780  1.1107
19057THY    CP363732   8.644   3.272   5.442  0.2318  0.4694  0.4917
19057THY    HP563733   8.711   3.353   5.412  0.0357 -2.1671 -0.2422
19057THY    HP663734   8.659   3.253   5.549  1.9108  0.2191  0.2150
19057THY    HP763735   8.542   3.310   5.435  0.4440  3.0585  1.7440
19057THY    CA363736   8.543   2.952   5.488 -0.7786 -0.1719 -0.2198
19057THY    HA363737   8.630   2.956   5.554  0.1176 -1.3814  2.7272
19057THY    CA463738   8.440   2.859   5.500  0.2319  0.3075  0.1379
19057THY    HA463739   8.446   2.784   5.577  2.2119 -1.1690 -1.3274
19057THY    CA563740   8.333   2.866   5.413  0.0653  0.9095 -0.6229
19057THY    CM163741   8.208   2.784   5.426 -0.3096 -0.4346  0.2330
19057THY    HM163742   8.117   2.836   5.392 -0.2269 -1.4575 -0.2748
19057THY    HM263743   8.196   2.748   5.529 -0.0676 -0.7156 -0.6768
19057THY    HM363744   8.219   2.707   5.349  2.4330 -0.1584  0.2687
19057THY    CA663745   8.334   2.962   5.310  0.2395  0.7141  0.1368
19057THY    HA663746   8.250   2.971   5.242  1.7351 -0.8789  3.3316
19058THY      O63747   1.407   4.907   5.204 -0.1444 -0.2507  0.3903
19058THY     HO63748   1.486   4.943   5.160  1.7004  1.2885 -1.5674
19058THY    CA163749   1.299   4.976   5.174 -0.5508 -0.2009  0.6469
19058THY    CA263750   1.174   4.925   5.216 -0.2278  0.5082 -0.0542
19058THY    CP163751   1.166   4.793   5.289  0.0262  0.4826  0.1344
19058THY    HP163752   1.236   4.716   5.253 -1.0111  0.7629 -0.9704
19058THY    CP263753   1.029   4.717   5.273 -0.1047 -0.2302  0.1846
19058THY    HP263754   0.951   4.746   5.344 -0.9478 -0.9704 -0.2332
19058THY    HP363755   1.046   4.612   5.298  0.7287  0.7637  0.5399
19058THY    HP463756   0.999   4.724   5.168 -2.2475  0.2238 -1.2756
19058THY    CP363757   1.200   4.800   5.439  0.3290  0.9022  0.0826
19058THY    HP563758   1.198   4.698   5.479  2.0099  2.2861  0.5544
19058THY    HP663759   1.131   4.873   5.482  1.2223  0.9794  0.9072
19058THY    HP763760   1.303   4.827   5.464  1.4029 -2.5105 -0.3498
19058THY    CA363761   1.060   4.997   5.187 -0.6698 -0.5486 -0.8994
19058THY    HA363762   0.961   4.964   5.217 -0.9191  1.5510  1.5259
19058THY    CA463763   1.068   5.122   5.127 -0.2819 -0.1972 -0.1677
19058THY    HA463764   0.979   5.184   5.117 -0.4753  1.6540 -0.1045
19058THY    CA563765   1.190   5.165   5.075  0.3442 -0.3478 -0.4797
19058THY    CM163766   1.199   5.296   4.995  0.6610 -0.3401 -0.0779
19058THY    HM163767   1.143   5.379   5.040 -0.5893 -0.8900 -0.6083
19058THY    HM263768   1.161   5.284   4.893 -2.4780  0.3986  2.3550
19058THY    HM363769   1.305   5.324   4.990  0.9995 -0.9906 -1.3861
19058THY    CA663770   1.310   5.089   5.103  0.5703  0.0016  0.1891
19058THY    HA663771   1.410   5.124   5.076 -0.2752 -0.1983  2.6298
19059THY      O63772   6.475   6.072   2.018 -0.2080 -0.3191 -0.3527
19059THY     HO63773   6.472   6.012   2.095  0.2059 -0.8261 -1.0512
19059THY    CA163774   6.382   6.045   1.928  0.7806  0.0676 -0.6859
19059THY    CA263775   6.369   6.114   1.809 -0.5147  0.0471 -0.1156
19059THY    CP163776   6.459   6.231   1.778 -0.3791 -0.7082 -0.2826
19059THY    HP163777   6.528   6.240   1.863  0.4129 -1.3043 -0.7152
19059THY    CP263778   6.387   6.371   1.763 -0.6824 -0.4185 -0.5057
19059THY    HP263779   6.463   6.448   1.746  0.0966  1.6576 -0.7510
19059THY    HP363780   6.327   6.380   1.854  0.8063  0.4158  1.8351
19059THY    HP463781   6.328   6.363   1.670 -1.1173 -0.0242 -2.6048
19059THY    CP363782   6.544   6.216   1.651 -0.7511  0.2543  1.1068
19059THY    HP563783   6.591   6.117   1.644  1.0438  0.3120  1.9095
19059THY    HP663784   6.620   6.296   1.649 -2.5712 -0.8671  2.9106
19059THY    HP763785   6.482   6.226   1.561  0.2460 -0.2670  3.1242
19059THY    CA363786   6.272   6.075   1.712 -0.8323  0.3390  0.1286
19059THY    HA363787   6.269   6.127   1.617 -1.2882 -0.2621 -0.9750
19059THY    CA463788   6.184   5.969   1.748 -0.0589  0.0747  0.1733
19059THY    HA463789   6.100   5.947   1.683 -0.7291  0.8559  0.4198
19059THY    CA563790   6.200   5.895   1.865 -0.5092 -0.0504 -0.0142
19059THY    CM163791   6.104   5.786   1.894  0.0685  0.8200 -0.2235
19059THY    HM163792   6.034   5.831   1.965  1.2843  0.9657  1.5218
19059THY    HM263793   6.157   5.701   1.939  1.5441  3.0375  1.7281
19059THY    HM363794   6.061   5.757   1.798 -0.1724  1.5402 -2.4282
19059THY    CA663795   6.302   5.931   1.948 -0.0883  0.2944 -0.4873
19059THY    HA663796   6.324   5.870   2.035 -1.6656 -1.1923 -3.4467
19060THY      O63797   8.786   4.916   5.748 -0.0223  0.2833  0.0927
19060THY     HO63798   8.880   4.935   5.767 -0.1753 -0.0600  1.2756
19060THY    CA163799   8.762   4.935   5.620 -0.0478  0.5833 -0.7843
19060THY    CA263800   8.629   4.944   5.574  0.5572  0.7049 -0.4985
19060THY    CP163801   8.514   4.949   5.682  0.2627  0.6056  0.8425
19060THY    HP163802   8.531   4.905   5.781 -1.8787  0.5928 -0.1491
19060THY    CP263803   8.385   4.878   5.634 -0.6565  0.3604  0.3270
19060THY    HP263804   8.339   4.933   5.551 -0.1787  0.2590  0.5802
19060THY    HP363805   8.316   4.885   5.719 -1.5318 -0.1397 -1.5518
19060THY    HP463806   8.393   4.769   5.625 -1.7544  0.1762  0.2468
19060THY    CP363807   8.481   5.093   5.723 -0.2922 -0.1051 -0.5413
19060THY    HP563808   8.552   5.146   5.788 -2.2837  0.2966  1.7976
19060THY    HP663809   8.392   5.092   5.785  0.6137  1.2953  0.9282
19060THY    HP763810   8.463   5.158   5.636 -3.8703  0.1327 -1.0260
19060THY    CA363811   8.607   4.951   5.434  0.6630 -0.1395 -0.2752
19060THY    HA363812   8.508   4.968   5.393  0.7845  0.0900  1.1403
19060THY    CA463813   8.711   4.958   5.346  0.2442 -0.1263  0.0126
19060THY    HA463814   8.693   4.969   5.239 -1.8591  0.3373  1.8286
19060THY    CA563815   8.842   4.946   5.395 -0.3435  0.3744  0.3614
19060THY    CM163816   8.957   4.945   5.292 -0.2781  0.1388  0.5406
19060THY    HM163817   8.917   4.915   5.195  1.2499 -0.1352 -0.8126
19060THY    HM263818   9.032   4.867   5.314 -1.0082 -1.2208 -0.5825
19060THY    HM363819   9.010   5.041   5.289  0.7531  2.2209  0.1008
19060THY    CA663820   8.872   4.930   5.532  0.6015 -0.5464 -0.5523
19060THY    HA663821   8.971   4.897   5.562  0.1991 -1.0736 -2.3318
19061THY      O63822   2.093   6.110   7.369 -0.0527  0.5995 -0.0546
19061THY     HO63823   2.001   6.142   7.377  0.0860 -2.3324  1.4715
19061THY    CA163824   2.105   6.079   7.236 -0.2282  0.1128 -0.0143
19061THY    CA263825   2.227   6.067   7.173  0.2853 -0.3359  0.8945
19061THY    CP163826   2.358   6.101   7.252 -0.2104 -0.2913 -0.4782
19061THY    HP163827   2.341   6.133   7.356 -0.1286 -0.8063  1.3483
19061THY    CP263828   2.427   6.224   7.185  0.9280  0.4342  0.2075
19061THY    HP263829   2.524   6.240   7.233  0.4873  0.9442  1.5678
19061THY    HP363830   2.355   6.305   7.201  0.7049  1.4027 -0.1695
19061THY    HP463831   2.441   6.209   7.078  1.0874  0.5358 -0.4121
19061THY    CP363832   2.457   5.978   7.253  0.3517 -0.2844 -0.1924
19061THY    HP563833   2.537   5.985   7.328 -0.3662  0.7341 -2.1385
19061THY    HP663834   2.508   5.948   7.161 -1.2574 -0.5729 -2.2446
19061THY    HP763835   2.389   5.898   7.286 -0.2866 -2.0765 -0.4363
19061THY    CA363836   2.224   6.025   7.036 -0.0474 -0.1546 -0.1141
19061THY    HA363837   2.319   6.023   6.984 -1.7385 -3.6166  0.5089
19061THY    CA463838   2.109   5.982   6.965  0.4003 -0.3895 -0.7021
19061THY    HA463839   2.110   5.941   6.864 -3.1020 -0.9127  0.1640
19061THY    CA563840   1.983   6.001   7.033  0.0005  0.2861 -0.0508
19061THY    CM163841   1.862   5.940   6.971 -0.4412  0.4717 -0.5470
19061THY    HM163842   1.769   5.980   7.012 -0.8419 -2.4330  1.8429
19061THY    HM263843   1.874   5.833   6.991 -2.1716 -0.9119 -1.0445
19061THY    HM363844   1.865   5.956   6.862  0.5424  0.5356 -0.2422
19061THY    CA663845   1.988   6.054   7.165  1.0090 -0.3792 -0.1572
19061THY    HA663846   1.891   6.060   7.213  0.7724 -0.5232 -2.1783
19062THY      O63847   8.876   5.396   5.857  0.5229  0.3942  0.0343
19062THY     HO63848   8.930   5.330   5.903  1.4633  1.0438  1.2055
19062THY    CA163849   8.839   5.481   5.951 -0.2141 -0.2468  0.0836
19062THY    CA263850   8.762   5.596   5.934 -0.6192  0.1294 -0.6596
19062THY    CP163851   8.714   5.628   5.785 -0.2183  0.1494 -0.1138
19062THY    HP163852   8.786   5.584   5.715 -0.0557  0.2431  0.0052
19062THY    CP263853   8.712   5.782   5.773  0.3734  0.6291  0.2138
19062THY    HP263854   8.813   5.808   5.807  1.5770 -1.9748 -0.7320
19062THY    HP363855   8.631   5.828   5.832 -1.5457 -0.8628 -1.0762
19062THY    HP463856   8.709   5.820   5.670  1.9286  0.5966  0.2967
19062THY    CP363857   8.580   5.565   5.745 -0.1684 -0.4765  0.0073
19062THY    HP563858   8.508   5.617   5.809  1.0149 -0.6990  2.0575
19062THY    HP663859   8.578   5.456   5.743  1.9699 -0.8368 -0.0744
19062THY    HP763860   8.561   5.593   5.640  0.7839 -0.9563 -1.0893
19062THY    CA363861   8.738   5.684   6.047  0.3249  0.3239  0.1660
19062THY    HA363862   8.688   5.779   6.033  1.3482  0.6038  0.7662
19062THY    CA463863   8.773   5.639   6.171 -0.8072 -0.5761 -0.2602
19062THY    HA463864   8.748   5.697   6.259 -2.3030  0.3321 -2.1577
19062THY    CA563865   8.855   5.527   6.189 -0.1638  0.4738 -0.6091
19062THY    CM163866   8.907   5.498   6.331 -0.0789 -0.1132 -0.9221
19062THY    HM163867   8.994   5.563   6.344 -1.4466 -2.7807  1.7029
19062THY    HM263868   8.938   5.394   6.347  0.5001  1.5422 -0.5166
19062THY    HM363869   8.829   5.498   6.408  0.5608  0.5986 -2.8269
19062THY    CA663870   8.886   5.450   6.081  0.3386  0.4033 -0.1905
19062THY    HA663871   8.951   5.363   6.082  0.2487  0.6111 -0.2573
19063THY      O63872   4.389   6.190   5.042  0.4380 -0.2139 -0.5887
19063THY     HO63873   4.480   6.223   5.053 -0.0168 -0.2443  0.7234
19063THY    CA163874   4.374   6.066   5.099 -0.5716 -0.1106 -0.1403
19063THY    CA263875   4.263   5.982   5.072  0.0782 -0.3111 -0.2331
19063THY    CP163876   4.153   6.031   4.981 -0.9109 -0.5869 -0.3373
19063THY    HP163877   4.136   6.139   4.986  3.4831 -1.7782  0.6006
19063THY    CP263878   4.012   5.969   5.012 -0.1824  0.3064  0.3504
19063THY    HP263879   3.931   6.018   4.958  1.9187 -3.2947  0.1616
19063THY    HP363880   3.991   5.957   5.119 -1.5158  0.3163  2.3060
19063THY    HP463881   4.013   5.867   4.973  0.5735 -3.0181  1.5088
19063THY    CP363882   4.192   5.994   4.843  0.1561 -0.1313  0.4522
19063THY    HP563883   4.109   6.018   4.775 -0.1902  0.0468 -0.2383
19063THY    HP663884   4.215   5.888   4.825  0.7048 -0.7206  0.6629
19063THY    HP763885   4.284   6.041   4.806 -0.3431 -0.5690  1.1077
19063THY    CA363886   4.251   5.859   5.139  0.4079  0.0964  0.2451
19063THY    HA363887   4.173   5.788   5.115 -0.7410 -0.2525  1.5767
19063THY    CA463888   4.344   5.829   5.238 -0.1943  0.2303  0.0830
19063THY    HA463889   4.322   5.743   5.302  0.0592  1.6249  1.0228
19063THY    CA563890   4.457   5.913   5.260  0.1003  0.1278  1.2723
19063THY    CM163891   4.553   5.874   5.368 -0.7343  0.0303 -0.2342
19063THY    HM163892   4.517   5.785   5.421 -0.0337  2.2218  0.7129
19063THY    HM263893   4.563   5.951   5.445  2.5196 -1.1523  0.7317
19063THY    HM363894   4.654   5.874   5.324 -1.4728 -1.7295 -0.6621
19063THY    CA663895   4.474   6.024   5.185  0.1543 -0.2046  0.1778
19063THY    HA663896   4.561   6.085   5.209  0.2170  1.0317 -0.3792
19064THY      O63897   8.096   4.735   2.867  0.5282 -0.4447 -0.5689
19064THY     HO63898   8.139   4.692   2.792  2.6823  1.2025 -1.4568
19064THY    CA163899   8.098   4.863   2.833 -0.7312 -0.6716 -0.7388
19064THY    CA263900   8.108   4.962   2.930  0.6245  0.2681  0.1973
19064THY    CP163901   8.113   4.927   3.080  0.0373  0.0942  0.8451
19064THY    HP163902   8.076   4.824   3.092  1.1394  1.1842  0.5521
19064THY    CP263903   8.032   5.014   3.175 -0.2376 -0.3104 -0.3150
19064THY    HP263904   8.026   4.973   3.277 -3.4993 -0.6738 -1.0986
19064THY    HP363905   7.925   5.021   3.148 -0.6497  1.4057  0.5336
19064THY    HP463906   8.082   5.111   3.181 -1.7658 -0.5858  0.5279
19064THY    CP363907   8.261   4.928   3.121  0.1668 -0.5072  0.6458
19064THY    HP563908   8.311   4.854   3.058 -0.5151 -0.0817 -0.1936
19064THY    HP663909   8.269   4.908   3.229 -1.8841 -0.4497 -0.0601
19064THY    HP763910   8.303   5.027   3.098  0.5775  0.4225  0.7073
19064THY    CA363911   8.116   5.097   2.880 -0.0711  0.7355  0.0824
19064THY    HA363912   8.134   5.170   2.958 -0.5640 -0.8212  1.9696
19064THY    CA463913   8.105   5.128   2.744  0.5572  0.0714 -0.1106
19064THY    HA463914   8.104   5.229   2.706 -0.5486 -3.0275 -1.1613
19064THY    CA563915   8.091   5.028   2.646  0.0581 -0.4171 -0.6538
19064THY    CM163916   8.086   5.052   2.506 -0.2028  0.6962 -0.2778
19064THY    HM163917   8.052   4.969   2.443  0.1974  1.7686 -1.2787
19064THY    HM263918   8.189   5.077   2.480  0.0048  0.1783 -1.5819
19064THY    HM363919   8.019   5.137   2.485 -0.6984 -1.6262 -1.1707
19064THY    CA663920   8.086   4.894   2.696 -0.1827  0.3630 -0.4646
19064THY    HA663921   8.069   4.810   2.629  0.0354  1.2534 -1.2310
19065THY      O63922   5.070   1.605   5.860 -0.2624 -0.6338 -0.3016
19065THY     HO63923   5.009   1.679   5.875  0.4273  2.1612 -0.1792
19065THY    CA163924   5.027   1.504   5.939 -0.5752  0.8088  0.2920
19065THY    CA263925   5.096   1.377   5.941 -0.1566 -0.4421 -0.1545
19065THY    CP163926   5.206   1.345   5.833  0.3642  0.0129 -0.1817
19065THY    HP163927   5.240   1.440   5.788  0.7683  1.4275  0.3786
19065THY    CP263928   5.140   1.252   5.725 -0.4622  0.0172 -0.8616
19065THY    HP263929   5.212   1.221   5.647  2.9838  3.2427 -1.7311
19065THY    HP363930   5.047   1.295   5.688 -0.7143  2.0101  0.4162
19065THY    HP463931   5.116   1.160   5.780 -0.6213 -0.3812 -1.0596
19065THY    CP363932   5.324   1.276   5.885 -0.2388  0.8714  0.3449
19065THY    HP563933   5.388   1.257   5.798 -1.0940  0.3524 -0.2052
19065THY    HP663934   5.298   1.179   5.928 -1.0954  0.4280  0.3758
19065THY    HP763935   5.392   1.329   5.953  0.7480  0.7245 -0.6806
19065THY    CA363936   5.038   1.275   6.021 -0.0144  0.6445  0.0091
19065THY    HA363937   5.073   1.173   6.008  2.5429  0.6314  0.8002
19065THY    CA463938   4.932   1.306   6.112  0.3742  0.1316 -0.3912
19065THY    HA463939   4.885   1.222   6.162 -1.9465 -3.1563 -1.2696
19065THY    CA563940   4.889   1.438   6.125 -0.1315 -0.0269  0.2509
19065THY    CM163941   4.772   1.473   6.212 -0.3445 -0.2848 -0.8419
19065THY    HM163942   4.725   1.570   6.191  0.1498  0.9617 -0.3055
19065THY    HM263943   4.793   1.474   6.320 -1.2836 -0.0925 -0.9056
19065THY    HM363944   4.677   1.424   6.191 -0.3058 -0.4502 -0.8488
19065THY    CA663945   4.931   1.530   6.031  1.2403 -0.5993  0.3341
19065THY    HA663946   4.885   1.628   6.038 -2.8872  0.1996 -1.4468
19066THY      O63947   8.640   7.835   4.268 -0.1074  0.7846 -0.4646
19066THY     HO63948   8.658   7.808   4.360  0.8544  0.1733 -2.0729
19066THY    CA163949   8.752   7.824   4.191 -0.3159  0.9633  0.1684
19066THY    CA263950   8.787   7.922   4.097  0.0720  0.5309 -0.1534
19066THY    CP163951   8.699   8.038   4.060 -0.2100 -0.2286 -0.0370
19066THY    HP163952   8.604   8.039   4.115  0.7116  1.4912 -1.4044
19066THY    CP263953   8.671   8.038   3.908  0.6342  0.0973  0.0925
19066THY    HP263954   8.610   7.948   3.894  1.5865 -0.0364 -0.5397
19066THY    HP363955   8.750   8.030   3.833  0.5600 -0.3835  2.9282
19066THY    HP463956   8.605   8.117   3.868 -1.4195 -0.8667 -1.9945
19066THY    CP363957   8.762   8.167   4.099  0.5022  0.5837  0.1555
19066THY    HP563958   8.769   8.179   4.208  2.4538  0.6564 -1.1633
19066THY    HP663959   8.696   8.246   4.061  1.8337 -1.3641  0.4067
19066THY    HP763960   8.856   8.188   4.046 -0.3520 -1.5568 -1.1197
19066THY    CA363961   8.903   7.909   4.022 -0.4848  0.3954 -0.2893
19066THY    HA363962   8.929   7.992   3.957  1.0731  1.9400  0.4979
19066THY    CA463963   8.980   7.790   4.047 -0.1799  0.2529  0.3350
19066THY    HA463964   9.075   7.775   3.998 -0.1144  0.5105 -0.1128
19066THY    CA563965   8.942   7.695   4.136  0.1549  0.4421  0.0086
19066THY    CM163966   9.035   7.581   4.162  0.6839  0.1655 -0.2308
19066THY    HM163967   9.139   7.589   4.127  0.3851 -0.4913  1.1338
19066THY    HM263968   8.997   7.495   4.105 -1.0390  1.7581 -0.5846
19066THY    HM363969   9.009   7.542   4.260 -2.5278 -0.4016  0.1940
19066THY    CA663970   8.827   7.708   4.208 -0.0052  0.0768 -0.6256
19066THY    HA663971   8.785   7.631   4.271 -0.4005  0.9198  0.2522
19067THY      O63972   6.928   9.098   2.317 -0.0558 -0.1302 -0.6817
19067THY     HO63973   6.852   9.157   2.332 -0.2605  0.0533 -0.9862
19067THY    CA163974   6.997   9.155   2.217 -0.2567 -0.1657 -0.2918
19067THY    CA263975   7.114   9.087   2.171  0.4339  0.3720  0.1328
19067THY    CP163976   7.173   8.964   2.238  0.0111  0.5517 -0.0301
19067THY    HP163977   7.105   8.914   2.307  0.4410  0.7995 -0.2771
19067THY    CP263978   7.297   8.999   2.319 -0.1104  0.2150  0.4412
19067THY    HP263979   7.322   8.909   2.376 -0.0339  1.0514  0.9791
19067THY    HP363980   7.271   9.082   2.386  0.6690  0.1380  0.7542
19067THY    HP463981   7.378   9.042   2.259  0.4171  0.3301 -0.3626
19067THY    CP363982   7.208   8.849   2.137 -0.0027  0.1683 -0.2559
19067THY    HP563983   7.122   8.841   2.069  0.4194 -0.4720  0.5320
19067THY    HP663984   7.234   8.751   2.181  0.1962 -0.4403 -0.4785
19067THY    HP763985   7.299   8.881   2.086  0.3080  0.8935  0.0556
19067THY    CA363986   7.186   9.138   2.063 -0.1890 -0.4654 -0.6022
19067THY    HA363987   7.289   9.108   2.043  0.3856  0.0791  0.9345
19067THY    CA463988   7.131   9.242   1.991  0.2039  0.3282  0.2232
19067THY    HA463989   7.175   9.271   1.896 -1.1207 -0.4886 -0.3616
19067THY    CA563990   7.013   9.301   2.032  0.3679 -0.3145 -1.3240
19067THY    CM163991   6.944   9.401   1.937  0.8561  0.3562  0.5335
19067THY    HM163992   6.939   9.358   1.836  0.6817  0.7565 -0.4290
19067THY    HM263993   6.998   9.495   1.924  1.1137 -0.8292  0.2451
19067THY    HM363994   6.844   9.434   1.967  1.3858  0.9085  1.6911
19067THY    CA663995   6.947   9.265   2.146 -0.1417 -0.3495  0.4810
19067THY    HA663996   6.849   9.302   2.176 -1.2528  0.4340 -2.7622
19068THY      O63997   6.352   5.108   3.674  0.1525 -0.1436  0.1416
19068THY     HO63998   6.274   5.061   3.707 -0.4494 -0.3421  0.9722
19068THY    CA163999   6.328   5.160   3.553 -0.0695  0.2426 -0.1229
19068THY    CA264000   6.427   5.213   3.478 -0.3051  0.5418 -0.0041
19068THY    CP164001   6.575   5.240   3.540  0.2537  0.0335  0.3056
19068THY    HP164002   6.581   5.211   3.645  0.0276 -0.0089  0.0998
19068THY    CP264003   6.607   5.385   3.555  0.2643  0.2766  0.4842
19068THY    HP264004   6.540   5.429   3.629 -2.8171 -1.8517 -0.3454
19068THY    HP364005   6.580   5.442   3.465  0.9864  0.8577  1.7996
19068THY    HP464006   6.713   5.396   3.581  0.7927 -0.7385 -1.6546
19068THY    CP364007   6.677   5.165   3.455  0.1389 -0.5521 -0.2786
19068THY    HP564008   6.623   5.074   3.424 -2.0675  0.4265  0.6228
19068THY    HP664009   6.764   5.134   3.512 -0.4480 -0.0752 -1.0971
19068THY    HP764010   6.710   5.211   3.361  1.7443 -0.6243 -1.5101
19068THY    CA364011   6.400   5.252   3.346  0.2764  0.3671  0.0875
19068THY    HA364012   6.478   5.288   3.280  0.3091  0.0373 -0.5743
19068THY    CA464013   6.266   5.243   3.297 -0.3738  1.1985  0.0875
19068THY    HA464014   6.236   5.279   3.199 -2.2514  1.5927 -0.3178
19068THY    CA564015   6.165   5.195   3.374  0.3377  0.7623  0.9531
19068THY    CM164016   6.025   5.185   3.312  0.0973  0.0567  0.4318
19068THY    HM164017   5.955   5.155   3.390  0.0603 -1.1488 -3.0323
19068THY    HM264018   6.018   5.107   3.235 -1.3688  1.5048 -0.9237
19068THY    HM364019   5.985   5.278   3.269 -2.5377 -0.8977 -1.0336
19068THY    CA664020   6.197   5.156   3.506  0.2638  0.1101 -0.1112
19068THY    HA664021   6.119   5.115   3.570  2.0841  3.5675  1.3652
19069THY      O64022   2.924   3.139   3.452  0.4969 -0.2958  0.5618
19069THY     HO64023   2.915   3.064   3.514  4.7893  0.9125  0.7820
19069THY    CA164024   2.914   3.250   3.526 -0.6307 -0.4439 -0.6187
19069THY    CA264025   2.938   3.374   3.458  0.0772 -0.0665 -0.6626
19069THY    CP164026   2.975   3.391   3.309  0.0162  0.5533  0.2613
19069THY    HP164027   2.990   3.292   3.264 -2.1325 -0.6878  0.4241
19069THY    CP264028   3.092   3.486   3.291  0.6077  0.2544  0.4446
19069THY    HP264029   3.141   3.461   3.196  1.5201  0.4585  1.4106
19069THY    HP364030   3.160   3.476   3.376  0.5333  0.1583 -1.3325
19069THY    HP464031   3.070   3.593   3.292 -0.8902  0.7954  0.1649
19069THY    CP364032   2.852   3.452   3.231  0.3360 -0.3531  0.0699
19069THY    HP564033   2.865   3.481   3.127  1.9691 -0.3640 -0.6187
19069THY    HP664034   2.817   3.539   3.288  2.0380 -0.3021  0.7573
19069THY    HP764035   2.766   3.383   3.226 -0.2015 -0.7835  0.7553
19069THY    CA364036   2.921   3.484   3.541 -0.7109  0.9405  0.2233
19069THY    HA364037   2.934   3.583   3.497 -0.0573  1.1243  0.2226
19069THY    CA464038   2.884   3.478   3.676  0.5631 -0.4119 -0.4005
19069THY    HA464039   2.879   3.567   3.739 -1.2534 -1.2627  0.1676
19069THY    CA564040   2.858   3.355   3.733  0.9078 -0.6890 -0.4471
19069THY    CM164041   2.822   3.346   3.878 -0.6821  0.4278 -0.0561
19069THY    HM164042   2.893   3.419   3.920 -1.5022 -2.0190  2.3186
19069THY    HM264043   2.832   3.245   3.920  1.0485  1.9850  0.6982
19069THY    HM364044   2.718   3.380   3.884 -1.1654 -1.3716 -1.1000
19069THY    CA664045   2.880   3.243   3.657  0.6719  0.0739  0.2858
19069THY    HA664046   2.865   3.149   3.710 -1.2478  3.3923  2.2399
19070THY      O64047   5.786   0.803   3.987  0.0266  0.8360  0.0146
19070THY     HO64048   5.741   0.889   3.993  1.5033  1.5327  0.7719
19070THY    CA164049   5.720   0.735   3.899 -0.2695  0.3185 -0.5249
19070THY    CA264050   5.783   0.622   3.837  0.0413  0.3218  0.0579
19070THY    CP164051   5.914   0.569   3.890 -0.0893 -1.1327  0.0709
19070THY    HP164052   5.927   0.590   3.997  3.4134 -1.0969 -1.4518
19070THY    CP264053   6.037   0.632   3.828  0.0271 -1.1913 -0.5701
19070THY    HP264054   6.044   0.619   3.720 -0.5276 -1.4374  0.9839
19070THY    HP364055   6.124   0.594   3.883  0.5298 -0.0201  2.0808
19070THY    HP464056   6.035   0.737   3.858 -1.4044  1.5745 -1.2917
19070THY    CP364057   5.924   0.416   3.897  0.5173  1.1782  0.2341
19070THY    HP564058   6.018   0.378   3.940 -0.0397  1.2701 -1.1119
19070THY    HP664059   5.929   0.386   3.791  2.8148  0.5618  2.4651
19070THY    HP764060   5.834   0.366   3.935  1.4963 -0.2236 -2.8719
19070THY    CA364061   5.700   0.546   3.754  0.0071  0.6579 -0.1087
19070THY    HA364062   5.741   0.455   3.712 -0.2777 -1.3849  0.6540
19070THY    CA464063   5.566   0.584   3.727  0.3248 -0.0058  0.7960
19070THY    HA464064   5.496   0.515   3.681  2.2407 -0.2685 -1.0747
19070THY    CA564065   5.514   0.704   3.774 -0.3062 -0.0710 -0.5879
19070THY    CM164066   5.369   0.735   3.757  1.3086 -0.1957  0.1222
19070THY    HM164067   5.319   0.646   3.717 -1.2605  1.8889  0.5132
19070THY    HM264068   5.345   0.818   3.690 -1.3429 -2.3365 -2.1792
19070THY    HM364069   5.324   0.733   3.856  3.3871  0.8141  0.0910
19070THY    CA664070   5.587   0.775   3.864  0.1904 -0.0531 -0.1292
19070THY    HA664071   5.545   0.858   3.920  1.1508 -2.9031  2.4507
19071THY      O64072   6.864   1.667   5.472  0.5160  0.3007  0.1436
19071THY     HO64073   6.902   1.755   5.458  0.9098  1.0719  0.1037
19071THY    CA164074   6.792   1.670   5.594  0.5980  0.3254 -0.4666
19071THY    CA264075   6.757   1.554   5.657 -0.1246  0.0523 -0.2206
19071THY    CP164076   6.815   1.422   5.609 -0.0277 -0.3115  0.3137
19071THY    HP164077   6.898   1.449   5.543  0.9655  0.2085 -1.3486
19071THY    CP264078   6.715   1.344   5.532  0.0268  0.4924  0.1523
19071THY    HP264079   6.748   1.240   5.525 -1.7051 -0.7412 -0.3558
19071THY    HP364080   6.706   1.387   5.431 -2.0714  0.1365 -1.0043
19071THY    HP464081   6.618   1.358   5.579 -0.3787  0.0038 -0.9415
19071THY    CP364082   6.874   1.342   5.737  0.0882  0.2944 -0.0918
19071THY    HP564083   6.794   1.311   5.804 -0.3815 -0.3303 -0.2500
19071THY    HP664084   6.947   1.401   5.794  0.1573 -0.5470  0.6723
19071THY    HP764085   6.922   1.252   5.696  0.4147  1.7729 -0.6168
19071THY    CA364086   6.684   1.567   5.774  0.1403 -0.5154  0.4731
19071THY    HA364087   6.653   1.480   5.831 -1.5866 -0.5364  1.0376
19071THY    CA464088   6.641   1.695   5.825 -0.0127  0.1011 -0.1102
19071THY    HA464089   6.578   1.694   5.913 -0.1000  0.0368 -0.8825
19071THY    CA564090   6.684   1.811   5.752  0.3506 -0.0413  0.5422
19071THY    CM164091   6.638   1.948   5.792 -0.0681  0.5682  0.3038
19071THY    HM164092   6.685   2.022   5.727 -0.4799 -0.9652 -0.7283
19071THY    HM264093   6.682   1.966   5.890  0.3741  0.2353  1.0575
19071THY    HM364094   6.531   1.964   5.773 -0.5374  0.0945 -2.6603
19071THY    CA664095   6.760   1.794   5.638 -0.0603 -0.2869  0.3022
19071THY    HA664096   6.787   1.875   5.571  0.7658  0.1232  0.3813
19072THY      O64097   3.314   2.160   6.541  0.3816 -0.4365 -0.7121
19072THY     HO64098   3.254   2.096   6.583  1.9756  1.3861 -1.0913
19072THY    CA164099   3.356   2.231   6.645 -0.4717  0.1200  0.5604
19072THY    CA264100   3.464   2.329   6.626 -0.6537  0.4074  0.1311
19072THY    CP164101   3.518   2.356   6.482  0.6756  0.1370  0.6758
19072THY    HP164102   3.483   2.277   6.413  2.3500  2.0166 -1.8713
19072THY    CP264103   3.670   2.346   6.471 -0.4439 -0.4057 -0.5254
19072THY    HP264104   3.711   2.385   6.377 -1.0987 -1.7275 -2.8617
19072THY    HP364105   3.699   2.240   6.480  2.4055 -1.0627  0.1101
19072THY    HP464106   3.710   2.410   6.551 -0.0545 -0.8186 -0.2541
19072THY    CP364107   3.475   2.493   6.438  0.6887  0.0540  0.3010
19072THY    HP564108   3.471   2.501   6.329  2.1260  0.1152  3.1740
19072THY    HP664109   3.533   2.574   6.484 -1.2074  1.0054  1.1869
19072THY    HP764110   3.371   2.499   6.471  0.3037 -1.1165  0.1612
19072THY    CA364111   3.519   2.406   6.735  0.1900 -0.4152 -0.1304
19072THY    HA364112   3.605   2.473   6.735  1.0281 -0.1675 -1.1808
19072THY    CA464113   3.458   2.378   6.860  0.2993  0.3723 -0.0508
19072THY    HA464114   3.498   2.412   6.956 -1.6408  1.7232 -1.4026
19072THY    CA564115   3.353   2.283   6.875 -0.3162 -0.2235 -0.0540
19072THY    CM164116   3.293   2.268   7.015  0.4991 -0.2086  0.4103
19072THY    HM164117   3.297   2.355   7.083 -2.3541  1.3826 -0.5673
19072THY    HM264118   3.326   2.188   7.082 -0.3227  1.5020  1.4266
19072THY    HM364119   3.185   2.256   7.005  0.2619  0.6342  1.5910
19072THY    CA664120   3.293   2.218   6.770 -0.6986  0.8716 -0.1907
19072THY    HA664121   3.215   2.144   6.784 -0.2721  0.8841 -0.6436
19073THY      O64122   5.097   0.972   6.230  0.2381  0.1559  0.3418
19073THY     HO64123   5.098   1.008   6.320  1.2998 -0.3190  1.5814
19073THY    CA164124   5.001   0.882   6.227 -0.0754 -0.0296  0.5632
19073THY    CA264125   4.985   0.803   6.106  0.3231 -0.3229  0.1326
19073THY    CP164126   5.067   0.831   5.978 -0.0459  0.8115 -0.0466
19073THY    HP164127   5.149   0.904   5.987  0.2057 -1.0738 -0.0293
19073THY    CP264128   4.977   0.896   5.870  0.0397  0.2728  0.1451
19073THY    HP264129   4.940   0.993   5.905 -0.6931 -2.1293  0.8046
19073THY    HP364130   4.892   0.831   5.847  0.0169 -1.1053  0.6398
19073THY    HP464131   5.024   0.912   5.773 -3.2849 -1.5602 -0.3389
19073THY    CP364132   5.132   0.710   5.916  0.1129  0.7527  0.1647
19073THY    HP564133   5.183   0.739   5.824 -1.8124 -2.1541 -4.5442
19073THY    HP664134   5.065   0.632   5.881  1.1255  0.8119 -0.7499
19073THY    HP764135   5.210   0.681   5.988  1.1091  0.1859  1.3284
19073THY    CA364136   4.877   0.704   6.114 -0.4330 -0.0263 -0.0009
19073THY    HA364137   4.840   0.641   6.033 -0.0646 -0.0075 -0.2395
19073THY    CA464138   4.798   0.697   6.232  0.1317  0.8157 -0.6641
19073THY    HA464139   4.712   0.631   6.239 -0.4577  1.1238  0.1061
19073THY    CA564140   4.817   0.792   6.333 -0.0014 -0.0115  0.7157
19073THY    CM164141   4.732   0.785   6.455  0.3777 -0.4436 -0.1202
19073THY    HM164142   4.790   0.829   6.537 -0.9841  1.3342 -1.4668
19073THY    HM264143   4.714   0.679   6.473 -0.1492 -0.4798 -0.0360
19073THY    HM364144   4.639   0.842   6.445 -0.5358  0.3494 -1.4382
19073THY    CA664145   4.918   0.883   6.333  0.6196 -0.1264  0.3406
19073THY    HA664146   4.914   0.976   6.389 -1.1219  0.7507 -0.2297
19074THY      O64147   4.388   1.340   2.146  0.1612  0.0439 -0.2515
19074THY     HO64148   4.393   1.436   2.157 -0.3630 -0.0737 -0.2102
19074THY    CA164149   4.484   1.302   2.072  0.4285 -0.2867 -0.0273
19074THY    CA264150   4.488   1.170   2.022  0.1784  0.2874 -0.3921
19074THY    CP164151   4.371   1.071   2.012 -0.0747 -0.2290  0.1854
19074THY    HP164152   4.285   1.105   2.072 -1.2539 -2.6718  1.8385
19074THY    CP264153   4.417   0.940   2.074 -0.2434  0.1271  0.3703
19074THY    HP264154   4.342   0.861   2.065  2.4294  2.1974 -2.6449
19074THY    HP364155   4.434   0.948   2.182  3.3656  0.0159 -2.7026
19074THY    HP464156   4.502   0.888   2.029  0.1216  0.4073  0.7187
19074THY    CP364157   4.312   1.048   1.870  0.0953  0.2001  0.0451
19074THY    HP564158   4.390   1.031   1.795  0.3280 -0.4694  3.3089
19074THY    HP664159   4.283   1.147   1.832 -0.5110 -0.1750 -0.2710
19074THY    HP764160   4.219   0.991   1.861  0.3127 -0.3633 -0.2232
19074THY    CA364161   4.604   1.135   1.946  0.1873 -0.2421  0.3132
19074THY    HA364162   4.603   1.041   1.893 -0.7895  0.3122 -0.0014
19074THY    CA464163   4.703   1.228   1.919 -0.1704  0.6381 -0.1203
19074THY    HA464164   4.787   1.201   1.855  1.4544  2.1697  1.0552
19074THY    CA564165   4.700   1.355   1.968 -0.3391 -0.0652 -0.3611
19074THY    CM164166   4.800   1.460   1.944  0.0429  0.1457  0.4511
19074THY    HM164167   4.893   1.420   1.900 -0.6479 -0.0760 -0.9690
19074THY    HM264168   4.819   1.520   2.034 -0.1037 -0.0017  0.7252
19074THY    HM364169   4.751   1.531   1.875 -0.9036 -0.1764 -0.4890
19074THY    CA664170   4.590   1.394   2.047  0.7003 -0.2128 -0.2845
19074THY    HA664171   4.583   1.492   2.093  1.9828 -0.6249  0.0087
19075THY      O64172   2.046   2.752   5.035  0.6459  0.2814 -0.1707
19075THY     HO64173   2.051   2.769   4.940  0.6367  0.6511  2.1826
19075THY    CA164174   2.103   2.866   5.092 -0.1250 -0.0457  0.0874
19075THY    CA264175   2.082   2.900   5.230 -0.0643 -0.7373 -0.6014
19075THY    CP164176   2.004   2.800   5.319 -0.6454 -0.3893 -0.0816
19075THY    HP164177   2.006   2.703   5.269 -0.3305 -0.5038 -0.0180
19075THY    CP264178   1.867   2.864   5.350  0.4878  0.1209 -0.1915
19075THY    HP264179   1.886   2.961   5.398  0.9490 -0.3131 -0.0664
19075THY    HP364180   1.808   2.803   5.420 -0.6457  0.0523  0.7828
19075THY    HP464181   1.805   2.878   5.261 -0.6260  0.5019 -2.2022
19075THY    CP364182   2.076   2.776   5.453  0.0299  0.3838  0.3295
19075THY    HP564183   2.174   2.733   5.429 -1.0938 -0.3657 -1.9819
19075THY    HP664184   2.023   2.702   5.515 -1.4916  0.1893  1.2051
19075THY    HP764185   2.099   2.863   5.515  1.0743  0.2182  0.1844
19075THY    CA364186   2.141   3.022   5.271 -0.2099 -0.7011 -0.1633
19075THY    HA364187   2.118   3.060   5.370 -1.0742  0.2013 -2.8195
19075THY    CA464188   2.223   3.098   5.191 -1.5727  0.8515 -0.1151
19075THY    HA464189   2.278   3.185   5.226 -0.5292 -1.8766  0.4137
19075THY    CA564190   2.241   3.055   5.056 -0.3676  0.1230 -0.8583
19075THY    CM164191   2.322   3.148   4.968  0.4563 -0.5539 -0.7071
19075THY    HM164192   2.401   3.184   5.035  0.5800  0.3134 -2.4680
19075THY    HM264193   2.263   3.237   4.945  0.2315 -0.7917 -0.9183
19075THY    HM364194   2.358   3.118   4.869 -2.1331 -2.3131  1.5169
19075THY    CA664195   2.180   2.944   5.007 -0.4853  0.1003  0.6089
19075THY    HA664196   2.205   2.903   4.909  0.2282  0.9945 -1.1945
19076THY      O64197   7.000   4.032   3.524  0.3212 -0.1851  0.1560
19076THY     HO64198   7.041   4.038   3.612 -3.6886  1.8211  2.5463
19076THY    CA164199   6.907   4.130   3.538  0.2068 -0.6339 -0.4677
19076THY    CA264200   6.812   4.162   3.433 -0.6083 -0.1598 -0.0250
19076THY    CP164201   6.822   4.091   3.295  0.3338  0.9521  0.0774
19076THY    HP164202   6.930   4.101   3.278  0.3395  1.7188  1.5167
19076THY    CP264203   6.753   4.169   3.176  0.3574 -0.0873  0.4890
19076THY    HP264204   6.774   4.117   3.081  1.2851 -1.0679  2.5394
19076THY    HP364205   6.794   4.270   3.180 -0.7655  1.3104  0.9219
19076THY    HP464206   6.643   4.160   3.176  0.4801 -0.4341 -1.9292
19076THY    CP364207   6.781   3.947   3.296  0.1405  0.6191 -0.2121
19076THY    HP564208   6.763   3.897   3.199 -0.9107  0.3414  0.6541
19076THY    HP664209   6.691   3.948   3.359  1.0700  2.1067 -2.6483
19076THY    HP764210   6.850   3.882   3.351  0.1041 -1.0235 -1.7568
19076THY    CA364211   6.713   4.261   3.464  0.0334 -0.2007 -0.1157
19076THY    HA364212   6.627   4.276   3.400  0.2392 -0.4919 -0.1654
19076THY    CA464213   6.713   4.318   3.589 -0.6378 -0.4731  0.1598
19076THY    HA464214   6.639   4.395   3.611 -2.0901 -0.9901 -1.0446
19076THY    CA564215   6.807   4.283   3.684  0.4753  0.3443  0.0709
19076THY    CM164216   6.798   4.352   3.815  0.1550 -0.6751 -0.5522
19076THY    HM164217   6.884   4.329   3.880 -1.0213  1.2420  0.2287
19076THY    HM264218   6.702   4.336   3.866 -0.6345 -0.8680  2.8890
19076THY    HM364219   6.807   4.460   3.803  1.2639 -2.5256 -0.8086
19076THY    CA664220   6.907   4.193   3.659  0.2609  0.1159 -0.1885
19076THY    HA664221   6.971   4.171   3.743 -0.7968  0.7647 -0.8738
19077THY      O64222   2.239   3.490   2.017 -0.1721  0.0413  0.1820
19077THY     HO64223   2.298   3.535   1.955  0.8574  1.3621  0.7250
19077THY    CA164224   2.250   3.559   2.135 -0.1113  0.0914  0.2351
19077THY    CA264225   2.153   3.557   2.234 -0.3533  0.6861  0.0243
19077THY    CP164226   2.021   3.477   2.208  0.5663 -0.4814  0.1520
19077THY    HP164227   2.044   3.369   2.208  1.0872  3.1913  0.1706
19077THY    CP264228   1.935   3.524   2.091 -0.3306  0.7195 -0.2109
19077THY    HP264229   1.901   3.628   2.105  0.9499 -0.2901  0.3711
19077THY    HP364230   1.847   3.462   2.074  0.2356 -1.6851 -0.4370
19077THY    HP464231   1.983   3.529   1.993 -3.0666 -0.6709  0.7553
19077THY    CP364232   1.931   3.474   2.337 -0.4773  0.1443 -0.6149
19077THY    HP564233   1.906   3.579   2.353  2.4763 -1.7851  0.5021
19077THY    HP664234   2.005   3.445   2.414  2.1256 -1.1615  2.0516
19077THY    HP764235   1.858   3.393   2.321 -1.6364  0.5274  0.3317
19077THY    CA364236   2.178   3.632   2.347 -1.1035 -0.8778  1.1128
19077THY    HA364237   2.105   3.637   2.427 -0.5234 -0.3406  1.0681
19077THY    CA464238   2.301   3.698   2.360 -0.1304 -1.0264  0.5434
19077THY    HA464239   2.325   3.734   2.460 -0.9483 -0.0897 -1.3689
19077THY    CA564240   2.397   3.694   2.258  0.9897 -1.0490  0.3058
19077THY    CM164241   2.530   3.765   2.272  0.0977 -0.3253 -0.6236
19077THY    HM164242   2.619   3.712   2.236  1.0750  1.0615  0.0066
19077THY    HM264243   2.550   3.804   2.372  0.6966 -0.5184 -0.4268
19077THY    HM364244   2.528   3.848   2.201  0.2391 -1.1177 -1.2839
19077THY    CA664245   2.371   3.625   2.144  0.0648  0.3677 -0.0949
19077THY    HA664246   2.445   3.617   2.065  1.6241  1.4875  2.2005
19078THY      O64247   9.429   6.130   4.554  0.4985  0.3968  0.0738
19078THY     HO64248   9.498   6.130   4.623 -0.8995  1.9185 -1.7765
19078THY    CA164249   9.322   6.180   4.614 -0.4422 -0.2054 -0.4993
19078THY    CA264250   9.200   6.118   4.597 -0.2905 -0.4258  0.1193
19078THY    CP164251   9.189   5.983   4.513  0.5474  0.2650  0.2108
19078THY    HP164252   9.259   5.968   4.430  1.3221  1.2495 -2.0293
19078THY    CP264253   9.053   5.969   4.451 -0.4868 -0.0900  0.1206
19078THY    HP264254   9.030   6.047   4.377 -0.5912 -0.3523 -0.1567
19078THY    HP364255   8.964   5.978   4.514 -0.5008 -0.1532  0.4166
19078THY    HP464256   9.063   5.870   4.404  0.9657 -1.0145  0.6712
19078THY    CP364257   9.223   5.871   4.605  0.7269  0.7780  0.5175
19078THY    HP564258   9.155   5.883   4.691  1.7335  1.7336 -0.2938
19078THY    HP664259   9.324   5.876   4.648  0.5316  1.2638  0.3692
19078THY    HP764260   9.211   5.774   4.554 -1.9997 -2.3250  2.2794
19078THY    CA364261   9.083   6.186   4.655  0.3199  0.0988 -0.1373
19078THY    HA364262   8.980   6.153   4.646 -0.3886  3.5370  0.7483
19078THY    CA464263   9.104   6.295   4.739 -0.2070  0.3610 -0.0048
19078THY    HA464264   9.017   6.330   4.793 -0.6297 -0.1264 -0.2958
19078THY    CA564265   9.235   6.350   4.760  0.2516  0.1662  0.6946
19078THY    CM164266   9.257   6.470   4.845 -0.5448  0.1207 -0.3758
19078THY    HM164267   9.192   6.460   4.933 -0.4491  0.1894 -0.3933
19078THY    HM264268   9.233   6.565   4.796  1.4191  1.4852  0.9179
19078THY    HM364269   9.360   6.475   4.884 -0.7761  1.0032 -1.9515
19078THY    CA664270   9.337   6.295   4.685  0.8622 -0.7041 -0.2461
19078THY    HA664271   9.435   6.342   4.678  0.7219 -3.1789 -0.1822
19079THY      O64272   5.358   8.958   2.159  0.1541  0.1947  0.1206
19079THY     HO64273   5.435   9.007   2.126  0.1589  2.6218  1.9899
19079THY    CA164274   5.392   8.917   2.282  0.1138  0.0114 -0.1090
19079THY    CA264275   5.312   8.830   2.356 -0.6063  0.5909 -0.4029
19079THY    CP164276   5.189   8.775   2.289 -0.3764  0.8512 -0.2438
19079THY    HP164277   5.137   8.852   2.231  0.7017 -0.2061 -0.2869
19079THY    CP264278   5.091   8.720   2.393 -0.2699  0.3663 -0.4998
19079THY    HP264279   5.126   8.623   2.430 -2.6653 -1.6432 -2.2461
19079THY    HP364280   4.992   8.706   2.350 -0.0718 -0.1814 -0.2220
19079THY    HP464281   5.073   8.791   2.475 -1.2882 -0.2647 -0.0090
19079THY    CP364282   5.222   8.662   2.191  0.3699 -0.7164 -0.8808
19079THY    HP564283   5.244   8.569   2.244  1.8707  0.1638 -0.0598
19079THY    HP664284   5.312   8.680   2.130 -1.7000 -3.5809  0.7392
19079THY    HP764285   5.136   8.647   2.124 -0.4217  0.2394 -0.7346
19079THY    CA364286   5.353   8.791   2.485  0.2286 -0.5355  0.2910
19079THY    HA364287   5.307   8.710   2.542  0.3870  0.0957  0.6429
19079THY    CA464288   5.470   8.845   2.543 -0.6943 -0.0769 -0.2973
19079THY    HA464289   5.492   8.816   2.645 -0.7529  0.4344  1.3377
19079THY    CA564290   5.547   8.931   2.461 -0.1852 -0.0630  0.4875
19079THY    CM164291   5.678   8.976   2.520 -0.4305 -1.4056 -0.8603
19079THY    HM164292   5.671   9.066   2.582 -0.5034  0.6617 -2.2167
19079THY    HM264293   5.765   8.980   2.453  1.3075  0.7580  2.7978
19079THY    HM364294   5.712   8.899   2.590 -1.2359 -1.3106 -1.1363
19079THY    CA664295   5.510   8.977   2.337  0.3088  0.0311 -0.6083
19079THY    HA664296   5.552   9.061   2.281 -1.8878 -2.6088 -1.1557
19080THY      O64297   2.770   8.994   6.959  0.2849 -0.1423 -0.0214
19080THY     HO64298   2.707   9.028   7.024  1.5829  0.5260  1.2023
19080THY    CA164299   2.797   9.092   6.881 -0.2124  0.5838  0.1382
19080THY    CA264300   2.904   9.096   6.786 -0.6063  0.2303 -0.3734
19080THY    CP164301   3.003   8.977   6.769 -0.1114  0.2357  0.0339
19080THY    HP164302   2.986   8.901   6.847  1.4754  0.3415 -0.2357
19080THY    CP264303   3.149   9.012   6.785  0.1660  0.3855  0.2643
19080THY    HP264304   3.168   9.048   6.887  2.9367 -0.4966  1.5736
19080THY    HP364305   3.185   9.093   6.720 -3.2930  2.4776  3.7969
19080THY    HP464306   3.217   8.931   6.757  0.9709 -1.6624  1.5448
19080THY    CP364307   2.974   8.904   6.633  0.6079 -0.6083 -0.0553
19080THY    HP564308   2.871   8.913   6.596  0.1745  0.5789 -0.0252
19080THY    HP664309   3.009   8.801   6.639 -0.4978  0.2091 -0.4039
19080THY    HP764310   3.036   8.955   6.558 -1.0133 -1.8474  0.2022
19080THY    CA364311   2.919   9.207   6.706 -0.4110 -0.8791 -0.3661
19080THY    HA364312   3.011   9.221   6.650  0.1231 -0.7860 -3.1187
19080THY    CA464313   2.834   9.313   6.726  0.2071  0.2073 -0.0011
19080THY    HA464314   2.860   9.403   6.671  1.4975  0.9313  0.0962
19080THY    CA564315   2.724   9.312   6.814 -0.0827  0.0173  0.1697
19080THY    CM164316   2.640   9.436   6.822 -0.4087 -0.5002  0.4601
19080THY    HM164317   2.672   9.521   6.760  1.2777 -0.3832 -0.0437
19080THY    HM264318   2.645   9.470   6.926  0.9957 -0.6667  0.8066
19080THY    HM364319   2.532   9.417   6.818 -0.8821  3.1556  1.6516
19080THY    CA664320   2.703   9.197   6.889  0.4077  0.0318  0.1414
19080THY    HA664321   2.628   9.190   6.967  1.0202  0.4807 -2.5769
19081THY      O64322   4.109   4.206   7.034  0.6497  0.1016 -0.2524
19081THY     HO64323   4.030   4.163   6.997  0.7013  0.8145 -0.9775
19081THY    CA164324   4.162   4.270   6.931  0.6873 -0.4589  0.1084
19081THY    CA264325   4.298   4.290   6.907  0.8661  0.4406 -0.3367
19081THY    CP164326   4.397   4.261   7.018 -0.1067  0.1537  0.4725
19081THY    HP164327   4.351   4.230   7.113 -0.1663  1.2041  3.4717
19081THY    CP264328   4.455   4.392   7.065  0.4050 -0.8611  0.1311
19081THY    HP264329   4.519   4.437   6.989 -0.8331 -2.1903 -0.2641
19081THY    HP364330   4.514   4.385   7.158 -2.6816  1.4874  2.3091
19081THY    HP464331   4.379   4.465   7.096  0.4163 -0.4219 -0.0401
19081THY    CP364332   4.504   4.161   6.983  0.1217  0.6096  0.1309
19081THY    HP564333   4.478   4.061   7.020 -0.4669 -1.9983 -0.7745
19081THY    HP664334   4.597   4.199   7.027 -1.0255  1.4694  2.0696
19081THY    HP764335   4.510   4.164   6.873 -2.1652  0.4219 -0.4572
19081THY    CA364336   4.337   4.349   6.789 -0.1287 -0.2635  0.2047
19081THY    HA364337   4.443   4.369   6.777  0.2600  0.9969 -0.9384
19081THY    CA464338   4.239   4.379   6.693 -0.0613  0.5789 -0.1640
19081THY    HA464339   4.263   4.417   6.594 -0.7517  0.2490 -0.5698
19081THY    CA564340   4.112   4.372   6.723  0.3546  0.2392  0.2953
19081THY    CM164341   4.013   4.401   6.612 -0.3625  0.3905 -0.2003
19081THY    HM164342   4.049   4.482   6.548 -2.4284 -0.0984  0.4061
19081THY    HM264343   3.916   4.422   6.659 -0.4812 -0.4668  1.3062
19081THY    HM364344   4.002   4.313   6.548  0.9022 -1.3778  0.8728
19081THY    CA664345   4.069   4.316   6.842  0.5009  0.0450  0.5355
19081THY    HA664346   3.961   4.303   6.849  0.3063 -1.3252  1.2455
19082THY      O64347   2.893   4.830   6.421 -0.3486 -0.0801  0.3831
19082THY     HO64348   2.887   4.887   6.342  2.1131  0.4930  1.5744
19082THY    CA164349   2.809   4.880   6.511 -0.5152  0.2067 -0.4108
19082THY    CA264350   2.828   4.844   6.645  0.2040 -0.1032  0.3674
19082THY    CP164351   2.924   4.729   6.682 -0.2427  0.6308 -1.0861
19082THY    HP164352   3.008   4.720   6.613 -0.6780 -0.0629 -0.0160
19082THY    CP264353   2.857   4.592   6.698 -0.4027 -0.0502 -0.2113
19082THY    HP264354   2.777   4.585   6.623 -0.1703 -0.2557 -0.7616
19082THY    HP364355   2.822   4.569   6.799 -1.5199 -0.2422  0.6001
19082THY    HP464356   2.933   4.519   6.669 -0.5992 -0.0286 -0.4263
19082THY    CP364357   3.001   4.760   6.810  0.1494 -0.2054 -0.7874
19082THY    HP564358   3.086   4.694   6.829  1.4390 -1.9368  0.3173
19082THY    HP664359   2.937   4.767   6.899  0.2690  0.0732 -2.5665
19082THY    HP764360   3.050   4.857   6.797 -0.5490  0.5927 -0.3037
19082THY    CA364361   2.744   4.898   6.747 -0.3453  0.0703 -0.7569
19082THY    HA364362   2.734   4.871   6.852 -1.2844  0.2400  0.1612
19082THY    CA464363   2.652   4.991   6.697 -0.4239  0.0975  0.3502
19082THY    HA464364   2.583   5.045   6.761 -1.6349 -1.4172  0.6370
19082THY    CA564365   2.641   5.028   6.560 -0.8017 -0.4023 -0.6163
19082THY    CM164366   2.531   5.124   6.514  0.2366  0.3253  0.0333
19082THY    HM164367   2.563   5.228   6.522  1.9303 -0.5646 -0.3791
19082THY    HM264368   2.444   5.101   6.577  0.1437 -0.4032 -1.7818
19082THY    HM364369   2.509   5.105   6.408  0.4786  0.1859  0.5269
19082THY    CA664370   2.726   4.979   6.473  0.5947  0.7298  0.3713
19082THY    HA664371   2.718   5.000   6.367 -0.9613  0.6829 -0.3380
19083THY      O64372   2.442   3.372   7.287  0.1802 -0.0985 -0.3929
19083THY     HO64373   2.534   3.376   7.256 -0.4255 -1.9286  1.7762
19083THY    CA164374   2.379   3.336   7.168  0.7278 -0.7992 -0.5013
19083THY    CA264375   2.245   3.370   7.137 -0.1676 -0.4595  0.3531
19083THY    CP164376   2.162   3.454   7.237 -1.3275  0.5286  0.1564
19083THY    HP164377   2.194   3.424   7.337 -0.7536  0.4443  0.4727
19083THY    CP264378   2.016   3.417   7.229 -0.1100  0.1728 -0.6493
19083THY    HP264379   1.961   3.478   7.301  1.8230 -0.1883  1.6642
19083THY    HP364380   1.992   3.315   7.259 -2.2446  0.7597 -0.0236
19083THY    HP464381   1.974   3.411   7.128  0.8318 -0.2112 -0.9714
19083THY    CP364382   2.180   3.610   7.208 -0.4234  0.5630 -0.3055
19083THY    HP564383   2.280   3.643   7.239 -0.4740 -0.6804  1.1160
19083THY    HP664384   2.106   3.677   7.252 -1.7609 -1.7644 -0.1684
19083THY    HP764385   2.185   3.631   7.101 -1.3462  0.7259  0.8192
19083THY    CA364386   2.195   3.340   7.005  0.8914 -0.1025 -0.3899
19083THY    HA364387   2.093   3.361   6.976  0.7313  0.4491 -0.3909
19083THY    CA464388   2.284   3.282   6.911 -0.8791 -0.6816 -0.1730
19083THY    HA464389   2.265   3.273   6.805  2.8247 -1.4929  0.1137
19083THY    CA564390   2.410   3.240   6.951 -0.1225 -0.2065  0.1973
19083THY    CM164391   2.490   3.164   6.846 -0.0972 -0.1160  0.3356
19083THY    HM164392   2.482   3.220   6.752  0.7337 -0.6831 -0.4762
19083THY    HM264393   2.462   3.060   6.827  1.6395 -1.1008 -0.0020
19083THY    HM364394   2.593   3.175   6.883 -1.4353  4.0125  0.7092
19083THY    CA664395   2.455   3.263   7.080  0.2155 -0.1894  0.5667
19083THY    HA664396   2.546   3.219   7.120 -1.7295  0.9151 -2.8439
19084THY      O64397   0.485   1.385   7.055 -0.0422 -0.2650  0.4636
19084THY     HO64398   0.396   1.352   7.033 -1.9354  2.7068  3.0477
19084THY    CA164399   0.499   1.516   7.014  0.4990  0.5383  0.5543
19084THY    CA264400   0.621   1.584   6.996  0.1234  0.0905 -0.3362
19084THY    CP164401   0.749   1.516   7.045  0.8100 -0.0186 -0.8098
19084THY    HP164402   0.721   1.426   7.101  0.4419 -2.2649 -2.1707
19084THY    CP264403   0.818   1.605   7.151 -0.7886  0.3218  0.7563
19084THY    HP264404   0.745   1.628   7.229 -1.1531  1.1796 -2.8445
19084THY    HP364405   0.850   1.697   7.100 -0.9854 -0.4038  0.4294
19084THY    HP464406   0.902   1.559   7.203  0.1900 -2.1892 -0.5035
19084THY    CP364407   0.839   1.484   6.924  0.2737 -0.1403  0.7294
19084THY    HP564408   0.872   1.572   6.868  1.2530 -0.5960  0.0973
19084THY    HP664409   0.784   1.422   6.853 -1.0999  0.6989  0.9550
19084THY    HP764410   0.933   1.435   6.955  1.2409  0.7401  2.9972
19084THY    CA364411   0.620   1.711   6.933 -0.3993  0.3151  0.0045
19084THY    HA364412   0.714   1.765   6.926 -0.1608  1.0975 -0.2901
19084THY    CA464413   0.496   1.750   6.873  0.2344  0.2572 -0.2835
19084THY    HA464414   0.491   1.846   6.824  1.2836 -0.7840 -0.7412
19084THY    CA564415   0.377   1.683   6.897  0.0529  0.1806 -0.5567
19084THY    CM164416   0.248   1.731   6.845 -0.4164  0.4169 -0.4142
19084THY    HM164417   0.232   1.697   6.742 -0.2774  0.2976 -0.1219
19084THY    HM264418   0.248   1.841   6.852 -0.4656  3.0223 -0.5291
19084THY    HM364419   0.161   1.688   6.897 -2.4770 -1.3073  1.3780
19084THY    CA664420   0.376   1.571   6.976  0.6731 -0.2129 -0.3979
19084THY    HA664421   0.286   1.511   6.985 -0.6163  1.8227  1.6705
19085THY      O64422   6.916   0.773   5.334 -0.3888 -0.8157  0.1643
19085THY     HO64423   6.885   0.721   5.410 -0.7704  0.0230  1.5767
19085THY    CA164424   6.958   0.876   5.397  0.3479 -0.1949 -0.6892
19085THY    CA264425   6.953   1.008   5.347  0.2669 -0.1984  0.1116
19085THY    CP164426   6.902   1.027   5.209  0.1826  0.2939  0.0552
19085THY    HP164427   6.914   0.937   5.148 -0.4148 -0.3518  0.4098
19085THY    CP264428   6.971   1.138   5.134  0.6323 -0.1234 -0.0843
19085THY    HP264429   6.952   1.119   5.028 -1.8111  0.2947 -0.2685
19085THY    HP364430   7.079   1.142   5.154  0.6308 -0.2835  1.9830
19085THY    HP464431   6.935   1.240   5.156 -0.7589 -0.6421 -0.4469
19085THY    CP364432   6.749   1.039   5.214  0.3192 -0.4610 -0.5393
19085THY    HP564433   6.704   0.945   5.247 -0.9688 -3.3431 -1.0430
19085THY    HP664434   6.703   1.066   5.118 -1.2907  0.8389  1.6725
19085THY    HP764435   6.721   1.123   5.279  3.0398 -1.1369  1.0148
19085THY    CA364436   7.008   1.116   5.420 -0.2883 -0.5626 -0.2336
19085THY    HA364437   7.006   1.220   5.387 -1.6843 -0.4514 -0.1995
19085THY    CA464438   7.070   1.093   5.546 -0.3101  0.0045  0.7468
19085THY    HA464439   7.110   1.176   5.603  0.2897  0.1889  0.3370
19085THY    CA564440   7.087   0.956   5.594  0.2633  0.5575 -0.4897
19085THY    CM164441   7.174   0.920   5.704 -0.3384 -0.4336 -0.3891
19085THY    HM164442   7.127   0.837   5.757 -2.0877 -2.1945 -0.5865
19085THY    HM264443   7.200   1.000   5.775  0.9725 -0.4830 -0.7435
19085THY    HM364444   7.267   0.879   5.664 -0.5568 -0.8931 -0.4365
19085THY    CA664445   7.027   0.855   5.517  0.5531 -0.1799  0.5094
19085THY    HA664446   7.035   0.754   5.556 -1.1935 -1.6853 -0.2669
19086THY      O64447   1.686   5.140   7.703 -0.8399 -0.3796  0.1164
19086THY     HO64448   1.691   5.061   7.646 -1.1346 -0.4519  0.1496
19086THY    CA164449   1.578   5.106   7.773  0.5705 -0.4717 -0.1256
19086THY    CA264450   1.505   5.192   7.865 -0.2385 -0.4333  0.3583
19086THY    CP164451   1.541   5.344   7.860  0.6936  0.3759  0.0307
19086THY    HP164452   1.619   5.353   7.784  0.7157  0.3337 -0.5075
19086THY    CP264453   1.582   5.394   7.998 -0.2003 -0.1447 -0.3217
19086THY    HP264454   1.651   5.479   7.992 -0.7570 -0.8756  0.0859
19086THY    HP364455   1.636   5.314   8.050 -0.2586  1.1972  0.4803
19086THY    HP464456   1.494   5.421   8.058 -0.5048  0.5930 -2.7284
19086THY    CP364457   1.433   5.427   7.804 -0.3608 -0.6205  0.2094
19086THY    HP564458   1.341   5.406   7.860 -0.3126 -0.0893  1.3329
19086THY    HP664459   1.412   5.406   7.698 -2.0139  0.1336 -2.3905
19086THY    HP764460   1.454   5.534   7.816 -1.1472  0.5835  0.2477
19086THY    CA364461   1.411   5.138   7.957  1.1879  0.1712 -0.7156
19086THY    HA364462   1.369   5.204   8.033  0.2635 -0.7810 -0.1747
19086THY    CA464463   1.372   5.007   7.931  0.0022 -0.6012 -0.3718
19086THY    HA464464   1.293   4.964   7.991  0.5879 -0.6619 -1.5564
19086THY    CA564465   1.440   4.922   7.846  0.1127 -0.4966 -0.9538
19086THY    CM164466   1.389   4.784   7.825  0.6429  0.4812  1.1990
19086THY    HM164467   1.422   4.739   7.731  0.7381  1.0380  0.0799
19086THY    HM264468   1.280   4.771   7.824  0.8332  0.1740 -0.7032
19086THY    HM364469   1.431   4.726   7.908 -1.1235  0.9991  0.5801
19086THY    CA664470   1.550   4.972   7.774  0.7192  0.4964  0.3011
19086THY    HA664471   1.600   4.901   7.708 -0.4183 -0.1636  0.0890
19087THY      O64472   3.262   5.691   6.652  0.3564 -0.0429  0.1199
19087THY     HO64473   3.211   5.619   6.611  0.8772 -1.1987  0.3901
19087THY    CA164474   3.393   5.676   6.617  1.0265  0.4236 -0.0448
19087THY    CA264475   3.484   5.785   6.635  0.7376  0.5781 -0.6353
19087THY    CP164476   3.429   5.928   6.667  0.2953  0.3050  0.2399
19087THY    HP164477   3.327   5.928   6.707 -1.9338 -4.6123  1.3166
19087THY    CP264478   3.422   5.997   6.533 -0.9020 -0.1681  0.5583
19087THY    HP264479   3.414   6.107   6.537  0.1645 -1.5651  0.7207
19087THY    HP364480   3.342   5.946   6.477  0.3338 -0.8157 -0.7257
19087THY    HP464481   3.517   5.979   6.482 -1.0485  0.1422 -1.2941
19087THY    CP364482   3.522   6.012   6.765 -0.2993 -0.1465 -0.0147
19087THY    HP564483   3.489   6.116   6.771 -0.6623 -3.7611  0.2238
19087THY    HP664484   3.627   6.009   6.734 -0.1389  0.0729  1.9415
19087THY    HP764485   3.521   5.961   6.862 -0.5943  0.7600  1.6491
19087THY    CA364486   3.618   5.758   6.608 -0.8347 -0.3790  0.2610
19087THY    HA364487   3.689   5.839   6.620 -1.4336  0.6270  0.6561
19087THY    CA464488   3.657   5.628   6.567 -0.1148  0.5324 -0.7908
19087THY    HA464489   3.760   5.606   6.541 -0.1833 -1.4303  0.8897
19087THY    CA564490   3.570   5.519   6.556 -0.0234 -0.6038 -0.8277
19087THY    CM164491   3.620   5.382   6.524  0.1686 -0.1941 -0.5808
19087THY    HM164492   3.727   5.374   6.502  0.6163  2.0008 -1.2246
19087THY    HM264493   3.576   5.342   6.432  0.9380  0.3345 -2.7719
19087THY    HM364494   3.606   5.318   6.611  1.4177 -0.5051 -1.2967
19087THY    CA664495   3.438   5.545   6.580 -0.7648  0.2055  0.0871
19087THY    HA664496   3.367   5.463   6.576 -0.3000  1.3514 -0.4038
19088THY      O64497   4.147   1.516   2.324 -0.3915  0.5470 -0.1349
19088THY     HO64498   4.108   1.469   2.248  2.1868 -2.6598  2.4276
19088THY    CA164499   4.038   1.589   2.360  0.2044  0.5016  0.4846
19088THY    CA264500   4.008   1.636   2.491  0.2612  0.4161  0.7272
19088THY    CP164501   4.101   1.629   2.609  0.8610  0.2282  0.6221
19088THY    HP164502   4.197   1.599   2.566  0.0162 -0.0526 -1.9733
19088THY    CP264503   4.056   1.522   2.720 -0.2046 -0.2920  0.0205
19088THY    HP264504   3.995   1.440   2.680 -1.1552  0.2580  0.4395
19088THY    HP364505   3.992   1.576   2.792  0.8052  0.3147  0.4404
19088THY    HP464506   4.141   1.472   2.766 -0.5298 -0.5168 -0.7472
19088THY    CP364507   4.130   1.760   2.686 -0.5126  0.2799  0.3226
19088THY    HP564508   4.176   1.831   2.616  1.9570  1.3544 -0.0872
19088THY    HP664509   4.200   1.738   2.768 -0.9978  0.2493 -1.5408
19088THY    HP764510   4.043   1.806   2.733 -1.8898  0.8377 -2.6112
19088THY    CA364511   3.883   1.690   2.505 -0.0058 -0.6298 -0.0117
19088THY    HA364512   3.866   1.730   2.604  1.3247 -0.6455  0.6783
19088THY    CA464513   3.794   1.703   2.400  0.0199  0.6489  0.1411
19088THY    HA464514   3.700   1.754   2.421  0.3503 -0.2311  1.1692
19088THY    CA564515   3.832   1.664   2.269 -0.3489 -0.3198 -0.5039
19088THY    CM164516   3.732   1.692   2.156 -0.6991  0.2478 -0.6070
19088THY    HM164517   3.673   1.601   2.140 -1.1804 -0.6816 -0.1407
19088THY    HM264518   3.783   1.708   2.060 -0.3602  0.2443 -1.6069
19088THY    HM364519   3.670   1.779   2.177  1.9684  1.2654  1.1771
19088THY    CA664520   3.954   1.601   2.253  0.5204  0.2386  0.0633
19088THY    HA664521   3.985   1.573   2.152  2.1955 -0.1102  2.8008
19089THY      O64522   3.688   8.807   7.178 -0.1203 -0.5288 -0.3189
19089THY     HO64523   3.705   8.845   7.266 -1.0351 -0.8018  0.7933
19089THY    CA164524   3.619   8.908   7.124 -0.3305 -0.3346  0.4284
19089THY    CA264525   3.568   8.901   6.993  0.1804 -0.2525  0.0156
19089THY    CP164526   3.604   8.776   6.899  0.3066  0.1410  0.1239
19089THY    HP164527   3.702   8.736   6.929  0.8771 -2.2177 -0.4411
19089THY    CP264528   3.610   8.819   6.744  0.2279  0.1085  0.1831
19089THY    HP264529   3.673   8.907   6.728 -1.0054 -3.0271  0.6221
19089THY    HP364530   3.508   8.833   6.706 -0.4657  1.2734 -1.3295
19089THY    HP464531   3.654   8.738   6.685  0.4848  1.5353 -0.7455
19089THY    CP364532   3.494   8.659   6.909  0.0212 -0.0183 -0.5554
19089THY    HP564533   3.538   8.565   6.873  1.1896 -2.6616  0.8985
19089THY    HP664534   3.399   8.682   6.860 -0.6792  2.3433  2.1688
19089THY    HP764535   3.471   8.643   7.015 -2.0269 -0.1358  1.2370
19089THY    CA364536   3.496   9.012   6.941  0.3780  0.3683  0.5877
19089THY    HA364537   3.445   9.013   6.845  0.8204  0.1363  1.1606
19089THY    CA464538   3.468   9.118   7.025  0.3376  0.8529  0.3231
19089THY    HA464539   3.404   9.201   6.994 -1.4223  1.8065 -0.6059
19089THY    CA564540   3.522   9.130   7.152 -0.6454 -0.3172 -0.1340
19089THY    CM164541   3.491   9.251   7.244  0.1240 -0.0117  0.3217
19089THY    HM164542   3.442   9.324   7.178  0.1235  1.5719  1.8146
19089THY    HM264543   3.582   9.288   7.290  1.1597 -3.0270  1.8696
19089THY    HM364544   3.416   9.210   7.312  0.8272  0.3732 -0.3520
19089THY    CA664545   3.599   9.023   7.201 -0.1453  0.5310 -0.0260
19089THY    HA664546   3.641   9.029   7.301  1.5188 -0.0785 -0.9299
19090THY      O64547   2.354   3.250   1.969  0.2160  0.3594 -0.0081
19090THY     HO64548   2.287   3.320   1.978  1.0989 -1.0959  1.1164
19090THY    CA164549   2.284   3.138   1.945 -0.2947  0.4548  1.1280
19090THY    CA264550   2.343   3.011   1.946 -0.4403  0.0365 -0.3673
19090THY    CP164551   2.503   2.997   1.960 -0.0460  0.3647  0.0157
19090THY    HP164552   2.547   3.097   1.969  1.5400  0.3382 -0.6416
19090THY    CP264553   2.562   2.924   1.835 -0.3337 -0.0752  0.6039
19090THY    HP264554   2.671   2.933   1.835 -0.2872 -0.0145  0.0612
19090THY    HP364555   2.519   2.965   1.743 -0.0202 -0.0163  1.0857
19090THY    HP464556   2.535   2.819   1.845  0.5716  2.2145  0.5127
19090THY    CP364557   2.538   2.931   2.086  0.5644  0.0298 -0.3668
19090THY    HP564558   2.506   2.983   2.178  2.1309  0.4650 -0.1294
19090THY    HP664559   2.647   2.924   2.092  0.7745 -1.9919  0.5848
19090THY    HP764560   2.493   2.831   2.085  0.6558 -1.9557 -0.4224
19090THY    CA364561   2.256   2.903   1.922 -0.5825  0.0336  0.1290
19090THY    HA364562   2.288   2.799   1.929 -1.8834  1.8293 -0.2111
19090THY    CA464563   2.118   2.923   1.910  0.0317 -0.2929  0.0171
19090THY    HA464564   2.052   2.837   1.912  0.5049  0.5310 -0.3420
19090THY    CA564565   2.066   3.051   1.907  0.3497 -0.2729 -0.6208
19090THY    CM164566   1.919   3.069   1.915  0.4750  0.4001 -0.6879
19090THY    HM164567   1.882   3.165   1.954 -0.9515 -1.4356 -0.4388
19090THY    HM264568   1.863   2.991   1.969 -2.8830 -0.6626  0.7908
19090THY    HM364569   1.876   3.058   1.815  0.7494  0.3160 -1.0165
19090THY    CA664570   2.148   3.162   1.926 -0.1027  0.2791  0.1923
19090THY    HA664571   2.110   3.263   1.935 -1.8621  0.4428 -0.4444
19091THY      O64572   7.768   5.213   3.967  0.2722  0.3332 -0.1233
19091THY     HO64573   7.716   5.131   3.968 -2.7542 -3.0036  1.4849
19091THY    CA164574   7.773   5.242   3.838 -0.0983 -0.0025  0.3800
19091THY    CA264575   7.795   5.376   3.791  0.3795 -0.1483 -0.7291
19091THY    CP164576   7.819   5.493   3.889  0.2705  0.1839  0.2417
19091THY    HP164577   7.835   5.459   3.992 -1.6260  0.0337 -1.2368
19091THY    CP264578   7.702   5.599   3.891  0.2324  0.4352  0.4458
19091THY    HP264579   7.732   5.682   3.956  0.8908  0.5124  0.1543
19091THY    HP364580   7.604   5.562   3.923  0.0708  0.3049  0.7623
19091THY    HP464581   7.687   5.641   3.791 -1.6025  1.1156  1.5354
19091THY    CP364582   7.953   5.564   3.862  0.4849 -0.0218  0.0624
19091THY    HP564583   8.025   5.481   3.867 -1.5701  0.7859 -1.7574
19091THY    HP664584   7.982   5.648   3.926  1.6451 -0.9409  0.3883
19091THY    HP764585   7.950   5.601   3.759 -3.4947  0.5108  1.6554
19091THY    CA364586   7.795   5.399   3.655 -0.6253 -0.6196  0.2736
19091THY    HA364587   7.805   5.503   3.625  0.4195 -3.6982 -0.6118
19091THY    CA464588   7.783   5.287   3.564 -0.2089  0.1436 -0.0413
19091THY    HA464589   7.773   5.312   3.458 -2.2257  0.3793  0.3196
19091THY    CA564590   7.769   5.159   3.613  0.2896 -0.1795  0.1026
19091THY    CM164591   7.772   5.054   3.505 -0.0039  0.7570 -0.4094
19091THY    HM164592   7.877   5.053   3.471 -0.5798 -1.0957 -0.3014
19091THY    HM264593   7.708   5.076   3.420  0.2279 -0.2944 -3.3139
19091THY    HM364594   7.755   4.951   3.538  0.8442  1.7855 -0.2493
19091THY    CA664595   7.769   5.134   3.750 -0.1416 -0.4452 -0.3052
19091THY    HA664596   7.772   5.031   3.784  0.5480 -0.4848 -0.3029
19092THY      O64597   8.500   1.022   1.558  0.1063 -0.1579 -0.2245
19092THY     HO64598   8.457   0.936   1.571 -2.1477 -3.4787  0.1741
19092THY    CA164599   8.423   1.122   1.622  0.7429  0.9396  0.3722
19092THY    CA264600   8.480   1.244   1.653  0.4882 -0.9551  0.0144
19092THY    CP164601   8.618   1.285   1.598  0.0482 -0.2209 -0.6381
19092THY    HP164602   8.630   1.237   1.500  3.1851  0.0763 -0.6811
19092THY    CP264603   8.725   1.237   1.694  0.1939 -0.0118 -0.4597
19092THY    HP264604   8.824   1.279   1.673 -0.0622 -0.1206  0.1012
19092THY    HP364605   8.742   1.129   1.682  0.0630 -2.1516 -0.2909
19092THY    HP464606   8.701   1.262   1.798  1.1757  1.0523 -3.4728
19092THY    CP364607   8.629   1.434   1.573 -0.4161  0.0390 -0.1012
19092THY    HP564608   8.636   1.497   1.663  0.0659 -1.5849  2.3221
19092THY    HP664609   8.541   1.468   1.518 -0.5362 -0.3582 -1.0307
19092THY    HP764610   8.722   1.454   1.517  0.2133  1.3321  0.7442
19092THY    CA364611   8.415   1.330   1.748  0.2109 -0.0634 -0.1693
19092THY    HA364612   8.464   1.420   1.784  1.2493 -0.7348 -0.4454
19092THY    CA464613   8.287   1.304   1.793  0.5114 -0.0929  1.5689
19092THY    HA464614   8.240   1.378   1.856 -0.7064  0.4348  0.4007
19092THY    CA564615   8.229   1.181   1.759  0.0362 -0.0873 -0.1881
19092THY    CM164616   8.093   1.148   1.808  0.1816 -0.2515 -0.9331
19092THY    HM164617   8.088   1.143   1.917 -1.0988 -0.2247  0.3160
19092THY    HM264618   8.064   1.048   1.775 -0.9889 -1.3069 -0.2731
19092THY    HM364619   8.012   1.212   1.770  0.3696  0.6180 -0.1522
19092THY    CA664620   8.296   1.082   1.676  0.2002  1.2185 -0.0951
19092THY    HA664621   8.249   0.985   1.659  1.2009  1.7389 -0.6841
19093THY      O64622   3.126   5.475   6.491 -0.4141  0.0386 -0.5319
19093THY     HO64623   3.124   5.468   6.394 -3.2877 -0.1475  1.1229
19093THY    CA164624   3.118   5.346   6.531  0.0706 -0.1948 -0.2006
19093THY    CA264625   3.027   5.293   6.627 -0.7801 -0.2186  0.8868
19093THY    CP164626   2.929   5.383   6.703  0.4951 -0.3096  0.7050
19093THY    HP164627   2.912   5.469   6.637  0.2396  0.4262  1.2266
19093THY    CP264628   2.986   5.438   6.830 -1.2957 -0.0939  0.0788
19093THY    HP264629   3.071   5.505   6.811 -1.7192 -1.6286  0.2273
19093THY    HP364630   3.029   5.352   6.883 -1.5080 -1.2584 -0.7617
19093THY    HP464631   2.914   5.491   6.893  1.0125  1.5551  1.4416
19093THY    CP364632   2.797   5.315   6.728 -0.7955  0.3042 -0.2546
19093THY    HP564633   2.729   5.400   6.745  0.6290 -3.2772  1.8611
19093THY    HP664634   2.793   5.242   6.809 -0.4216  1.7785  1.2914
19093THY    HP764635   2.765   5.266   6.636 -2.7966  0.1960  1.1096
19093THY    CA364636   3.028   5.153   6.647  0.3119  0.6099  0.5630
19093THY    HA364637   2.953   5.104   6.709  0.1335 -1.8809 -2.6601
19093THY    CA464638   3.123   5.075   6.581 -0.3456 -0.1514  0.8062
19093THY    HA464639   3.136   4.969   6.602 -0.0122  0.6137  0.9839
19093THY    CA564640   3.209   5.122   6.490 -0.5647 -0.1114 -0.1249
19093THY    CM164641   3.310   5.039   6.420 -0.0251 -0.1910 -0.4246
19093THY    HM164642   3.358   4.975   6.494  1.2456 -0.4737  0.1678
19093THY    HM264643   3.377   5.096   6.355  1.8199  2.2159  0.2982
19093THY    HM364644   3.262   4.980   6.340 -0.5451 -0.0783 -0.1591
19093THY    CA664645   3.194   5.262   6.456  0.2268 -0.4006  0.5419
19093THY    HA664646   3.261   5.308   6.383  1.6934  1.2440  1.1451
19094THY      O64647   3.954   4.835   6.127  0.2997 -0.7350 -0.8785
19094THY     HO64648   4.045   4.862   6.108  0.8520  2.2811 -0.3074
19094THY    CA164649   3.864   4.922   6.055 -0.0935 -0.5173  1.0903
19094THY    CA264650   3.725   4.905   6.053 -0.3026 -0.8412  0.0564
19094THY    CP164651   3.653   4.795   6.137 -0.4759 -0.2424 -0.1913
19094THY    HP164652   3.724   4.711   6.132  0.4982 -0.1693  0.6184
19094THY    CP264653   3.524   4.743   6.076  0.3801  0.4690  0.4181
19094THY    HP264654   3.476   4.661   6.132 -0.6739 -0.5253  0.3394
19094THY    HP364655   3.535   4.708   5.973 -1.3963 -0.0003  1.1568
19094THY    HP464656   3.445   4.819   6.075  0.3352  0.5391  0.3724
19094THY    CP364657   3.629   4.849   6.282 -0.3349  0.7277  0.1325
19094THY    HP564658   3.725   4.867   6.333 -0.3403  0.4785  0.8744
19094THY    HP664659   3.571   4.770   6.331  3.7245  1.7406 -2.5635
19094THY    HP764660   3.568   4.940   6.278 -0.2289  0.9008  0.2118
19094THY    CA364661   3.642   4.981   5.970  0.3877 -0.9114 -0.6092
19094THY    HA364662   3.534   4.973   5.963  0.2632  0.1531  0.0059
19094THY    CA464663   3.715   5.075   5.897 -0.3129 -0.0898  0.3472
19094THY    HA464664   3.657   5.136   5.828  0.4031 -1.9717 -1.0100
19094THY    CA564665   3.854   5.090   5.900  0.2020  0.3480 -0.1783
19094THY    CM164666   3.920   5.209   5.830 -0.1815 -0.5262  0.5784
19094THY    HM164667   3.845   5.285   5.805  0.0001 -4.3121 -0.3041
19094THY    HM264668   3.973   5.174   5.740 -1.1022 -1.1543  0.7729
19094THY    HM364669   4.000   5.253   5.892 -1.3268  2.2978 -1.0904
19094THY    CA664670   3.933   5.015   5.979 -0.2466 -0.1763  0.9727
19094THY    HA664671   4.041   5.022   5.979 -0.1888 -0.7223  0.1942
19095THY      O64672   6.637   4.740   6.053  0.1668  0.3327 -0.4786
19095THY     HO64673   6.551   4.757   6.094  0.6317  1.6898 -1.2239
19095THY    CA164674   6.640   4.751   5.912  0.5141 -1.0163 -0.2252
19095THY    CA264675   6.762   4.752   5.838  0.2786 -0.1521 -0.4633
19095THY    CP164676   6.902   4.751   5.906 -0.3339 -0.0739 -0.6055
19095THY    HP164677   6.866   4.746   6.010 -0.0979 -0.0202 -1.3150
19095THY    CP264678   6.964   4.885   5.860  0.5598  0.1198 -0.1750
19095THY    HP264679   6.987   4.884   5.753  0.0848  0.0190 -1.3666
19095THY    HP364680   7.050   4.898   5.927 -0.0019  1.1530 -1.4865
19095THY    HP464681   6.897   4.968   5.885  1.4669  0.6983  0.4105
19095THY    CP364682   6.982   4.633   5.853  0.1419  0.3143  0.5862
19095THY    HP564683   7.072   4.617   5.915 -1.1227  2.1475  0.2210
19095THY    HP664684   7.013   4.648   5.749 -2.9461 -1.0835 -1.7046
19095THY    HP764685   6.928   4.538   5.841 -0.6283 -1.6540  1.2352
19095THY    CA364686   6.753   4.759   5.694 -0.0792 -0.2174 -0.2475
19095THY    HA364687   6.839   4.754   5.629 -0.4336 -0.7912  0.7401
19095THY    CA464688   6.621   4.768   5.634 -0.1126  0.7364  0.6699
19095THY    HA464689   6.608   4.776   5.527 -0.7503  0.5845 -1.5762
19095THY    CA564690   6.504   4.783   5.713  0.3609  0.3573  0.2489
19095THY    CM164691   6.370   4.794   5.650  0.0324 -0.6932  0.1229
19095THY    HM164692   6.371   4.866   5.567  0.6585  0.1499  1.1128
19095THY    HM264693   6.291   4.811   5.725  1.1659  1.3979 -2.9890
19095THY    HM364694   6.362   4.692   5.610  0.3395 -0.7420  0.1184
19095THY    CA664695   6.519   4.771   5.849  0.2458 -0.3742  0.0758
19095THY    HA664696   6.428   4.765   5.909 -1.0974 -2.3391 -0.2355
19096THY      O64697   5.665   6.217   5.958 -0.1723  0.7939  0.0229
19096THY     HO64698   5.616   6.148   6.005  0.7978  1.5222 -0.1971
19096THY    CA164699   5.644   6.211   5.820 -0.3038 -0.1649 -0.3281
19096THY    CA264700   5.703   6.303   5.733 -0.0843 -0.3753 -0.0148
19096THY    CP164701   5.782   6.420   5.794  0.5124 -0.0610  0.5378
19096THY    HP164702   5.751   6.449   5.896  1.9627  0.3219  0.7936
19096THY    CP264703   5.767   6.558   5.719 -0.0354 -0.1768  0.3040
19096THY    HP264704   5.660   6.576   5.703 -0.3471  0.4875 -0.8611
19096THY    HP364705   5.816   6.538   5.623  0.6184  0.4810 -1.4720
19096THY    HP464706   5.807   6.644   5.773  1.8494 -0.4956 -0.3351
19096THY    CP364707   5.930   6.380   5.813  0.5300 -0.1308 -0.6509
19096THY    HP564708   5.947   6.288   5.871 -0.6168 -1.6022 -1.8335
19096THY    HP664709   5.979   6.466   5.860  2.2027 -1.2041 -0.9820
19096THY    HP764710   5.981   6.355   5.720  1.0260 -0.2326  0.6570
19096THY    CA364711   5.670   6.291   5.594 -0.1113 -0.7398 -0.1839
19096THY    HA364712   5.703   6.366   5.523 -0.6444 -1.0497 -0.2378
19096THY    CA464713   5.596   6.191   5.543  0.0275 -0.5186  0.1055
19096THY    HA464714   5.583   6.181   5.436  0.4956 -0.6133  0.5000
19096THY    CA564715   5.532   6.107   5.635 -0.1225 -0.8648  0.3890
19096THY    CM164716   5.428   6.007   5.586 -0.0056  0.1498  0.7124
19096THY    HM164717   5.369   5.969   5.670 -1.4199 -1.6486 -1.3959
19096THY    HM264718   5.479   5.920   5.543 -0.1043 -0.1100  0.7786
19096THY    HM364719   5.349   6.042   5.518 -1.2105  0.5785 -1.0074
19096THY    CA664720   5.542   6.129   5.774  0.0414 -0.2255  0.2090
19096THY    HA664721   5.474   6.083   5.844 -0.1151  1.1394  2.3651
19097THY      O64722   3.383   7.537   5.532 -0.5333 -0.2677  0.7749
19097THY     HO64723   3.361   7.626   5.501 -0.6200  0.7986  1.1389
19097THY    CA164724   3.449   7.476   5.430 -0.1736 -0.2344 -0.2031
19097THY    CA264725   3.480   7.339   5.432 -0.1525  0.2999 -0.4461
19097THY    CP164726   3.430   7.246   5.544 -0.4088  0.2253 -0.0929
19097THY    HP164727   3.372   7.311   5.611 -1.5402  0.9171 -1.7395
19097THY    CP264728   3.538   7.177   5.613 -1.2957  0.5535 -0.6325
19097THY    HP264729   3.616   7.251   5.635  0.5038 -0.9666 -1.9695
19097THY    HP364730   3.580   7.109   5.537  0.8575 -0.4294  1.6617
19097THY    HP464731   3.504   7.117   5.699 -1.3791  1.0953  0.1780
19097THY    CP364732   3.328   7.144   5.491 -0.3513  0.3970 -0.4331
19097THY    HP564733   3.297   7.075   5.570 -0.3299  0.3139 -0.5382
19097THY    HP664734   3.372   7.085   5.410 -0.3351  1.1020 -1.4176
19097THY    HP764735   3.245   7.202   5.449  1.3831 -3.2089 -0.2909
19097THY    CA364736   3.549   7.285   5.319 -0.6294 -0.2952  0.2028
19097THY    HA364737   3.582   7.181   5.316  1.8251  1.5420  0.8274
19097THY    CA464738   3.591   7.373   5.216 -0.6290  0.1335 -0.4117
19097THY    HA464739   3.655   7.338   5.135  0.7913 -0.0990  2.4451
19097THY    CA564740   3.565   7.509   5.219  0.1302  0.6999 -0.0655
19097THY    CM164741   3.610   7.600   5.114 -0.7731  0.3247  0.1815
19097THY    HM164742   3.529   7.669   5.089 -1.6551  2.7589  0.1460
19097THY    HM264743   3.667   7.557   5.031 -0.0234  0.9151  0.0090
19097THY    HM364744   3.689   7.661   5.160  0.1055 -0.0804 -0.6266
19097THY    CA664745   3.491   7.556   5.330 -0.2148 -0.4681  0.6848
19097THY    HA664746   3.457   7.659   5.336 -2.5189  1.3797 -0.0955
19098THY      O64747   4.483   8.174   2.289  0.1856 -0.6290 -0.2274
19098THY     HO64748   4.508   8.135   2.374 -0.1533  1.4574  3.5673
19098THY    CA164749   4.550   8.290   2.285  0.0456 -0.1638 -0.2947
19098THY    CA264750   4.515   8.396   2.199  0.1154  0.4936  0.3511
19098THY    CP164751   4.391   8.371   2.115  0.0041  0.1778 -0.5278
19098THY    HP164752   4.309   8.332   2.177  0.0958  0.7032  0.1028
19098THY    CP264753   4.411   8.265   2.005 -0.0273  0.3613  0.5085
19098THY    HP264754   4.483   8.300   1.931  0.2283 -0.0586 -0.8568
19098THY    HP364755   4.321   8.248   1.945  0.3477 -0.8849  2.5792
19098THY    HP464756   4.445   8.169   2.046 -0.8532 -1.1678 -0.4665
19098THY    CP364757   4.324   8.504   2.068  0.3319  0.0500  0.0824
19098THY    HP564758   4.380   8.573   2.004 -1.2365 -0.3312  1.0589
19098THY    HP664759   4.286   8.572   2.145  0.6443  1.6874 -1.5217
19098THY    HP764760   4.235   8.469   2.015  0.7834 -0.5955 -0.1181
19098THY    CA364761   4.601   8.508   2.184  0.4616  0.1356 -0.6714
19098THY    HA364762   4.591   8.582   2.106  1.2147  0.7246  0.0782
19098THY    CA464763   4.721   8.511   2.268  0.6508 -0.3970 -0.5245
19098THY    HA464764   4.785   8.599   2.267 -0.4166  0.6615  0.2807
19098THY    CA564765   4.755   8.405   2.349 -0.7245 -0.3046  0.5747
19098THY    CM164766   4.893   8.406   2.412  1.1931  0.2902 -0.4690
19098THY    HM164767   4.912   8.326   2.485 -0.7264  1.6335  0.2277
19098THY    HM264768   4.917   8.501   2.460 -0.4620 -1.6853  1.0270
19098THY    HM364769   4.969   8.402   2.333  0.8313 -0.0250 -1.5748
19098THY    CA664770   4.679   8.288   2.345 -0.8916  0.2143  0.0262
19098THY    HA664771   4.693   8.201   2.408 -3.0628 -0.8815 -1.2085
19099THY      O64772   0.479   2.897   6.612  0.3745  0.1318 -0.0369
19099THY     HO64773   0.537   2.920   6.687  0.8846 -0.6945  1.5328
19099THY    CA164774   0.508   2.769   6.589  0.6068  0.8106  0.1945
19099THY    CA264775   0.524   2.702   6.469 -0.0141  1.3532  0.0125
19099THY    CP164776   0.499   2.775   6.339 -0.6549  0.3282 -0.8338
19099THY    HP164777   0.408   2.833   6.356 -1.0446  1.7284 -1.7962
19099THY    CP264778   0.460   2.687   6.217  0.5222 -0.6017  0.4144
19099THY    HP264779   0.366   2.632   6.236  1.0091  1.1711  0.1339
19099THY    HP364780   0.537   2.612   6.199 -0.3387  1.3090 -1.0145
19099THY    HP464781   0.444   2.751   6.129  1.6268  0.1992  1.8354
19099THY    CP364782   0.611   2.874   6.306  0.0207 -0.0728 -0.1790
19099THY    HP564783   0.593   2.940   6.221 -2.4583  0.7533  0.3203
19099THY    HP664784   0.707   2.822   6.291  1.4033 -0.9040  2.4333
19099THY    HP764785   0.623   2.939   6.393  0.8995  1.2938 -2.0603
19099THY    CA364786   0.564   2.569   6.475 -0.5393 -0.2133  0.2560
19099THY    HA364787   0.588   2.509   6.387  0.3559  0.4605 -0.4096
19099THY    CA464788   0.594   2.513   6.601 -0.4307 -0.0462 -0.3012
19099THY    HA464789   0.628   2.409   6.605 -0.0781  1.1784 -0.1569
19099THY    CA564790   0.565   2.577   6.719 -0.1697 -0.2103 -0.3398
19099THY    CM164791   0.568   2.493   6.843 -0.3015 -0.4748 -0.0055
19099THY    HM164792   0.490   2.526   6.913 -0.0025 -1.0930  2.1430
19099THY    HM264793   0.669   2.486   6.887 -0.3077 -0.2536  1.1300
19099THY    HM364794   0.538   2.389   6.826 -0.9339  0.3447  0.0287
19099THY    CA664795   0.513   2.706   6.709 -0.5412  0.2588  0.1691
19099THY    HA664796   0.482   2.756   6.800  2.3173  1.3164  0.2260
19100THY      O64797   4.308   5.505   3.338  0.5276 -0.2549  0.7294
19100THY     HO64798   4.395   5.461   3.339  1.3414 -0.6017  2.2573
19100THY    CA164799   4.221   5.399   3.333  0.2795  0.6328  0.1518
19100THY    CA264800   4.078   5.425   3.336 -0.1969 -0.2153  0.1851
19100THY    CP164801   4.024   5.566   3.343 -0.3256 -0.1918 -0.6296
19100THY    HP164802   4.093   5.639   3.387 -0.8055 -0.2201 -0.1518
19100THY    CP264803   3.905   5.590   3.421  0.3158  0.5698 -0.2505
19100THY    HP264804   3.935   5.611   3.525  0.7154  0.5917 -0.9031
19100THY    HP364805   3.827   5.513   3.432 -1.9826 -0.0425  1.8499
19100THY    HP464806   3.852   5.681   3.390 -1.7295  1.4701 -1.0835
19100THY    CP364807   3.997   5.608   3.198  0.3438  0.2835  0.3464
19100THY    HP564808   3.925   5.545   3.144 -1.2839 -0.0671  2.3959
19100THY    HP664809   4.087   5.606   3.137 -0.6833 -1.3183 -2.2814
19100THY    HP764810   3.971   5.714   3.190 -0.4408 -1.8054  0.0472
19100THY    CA364811   3.990   5.317   3.333  0.6003  0.1851 -0.0006
19100THY    HA364812   3.883   5.332   3.342  0.6762  0.0113  0.6670
19100THY    CA464813   4.048   5.187   3.320 -0.5471 -1.0974 -0.0779
19100THY    HA464814   3.988   5.097   3.327 -0.7736  1.4327  0.1910
19100THY    CA564815   4.184   5.162   3.321  1.0439  0.4834  0.2225
19100THY    CM164816   4.231   5.027   3.306 -0.1646 -0.4720  0.4799
19100THY    HM164817   4.340   5.023   3.314 -0.2605  1.0793  0.2191
19100THY    HM264818   4.197   4.980   3.213 -1.9254 -0.0914  0.9104
19100THY    HM364819   4.195   4.954   3.380  0.1354 -2.0651 -1.3615
19100THY    CA664820   4.276   5.268   3.328 -0.6235 -0.1126  0.4543
19100THY    HA664821   4.384   5.255   3.334 -0.4625  0.8268  1.9582
19101THY      O64822   5.955   4.019   1.959 -0.1753 -0.4155 -0.4347
19101THY     HO64823   5.884   4.029   1.894  1.0881 -1.8173 -0.3034
19101THY    CA164824   6.034   4.129   1.955 -0.5508  0.2232 -0.3310
19101THY    CA264825   6.149   4.135   2.033  1.0890 -0.5717 -0.4375
19101THY    CP164826   6.174   4.020   2.132 -0.3052  0.4928  0.3205
19101THY    HP164827   6.118   3.932   2.099  0.2346  0.8726 -0.1794
19101THY    CP264828   6.133   4.071   2.272 -0.0100 -0.3834 -0.3690
19101THY    HP264829   6.213   4.135   2.307 -0.6400 -0.3757  0.4254
19101THY    HP364830   6.110   3.989   2.341 -0.2824  1.4353  1.1817
19101THY    HP464831   6.043   4.131   2.251 -2.2447 -1.6139 -3.7868
19101THY    CP364832   6.322   3.986   2.154 -0.0394 -0.5190  0.0030
19101THY    HP564833   6.380   4.074   2.185 -2.3477  1.5098  0.8900
19101THY    HP664834   6.357   3.957   2.054  3.0506  0.0584  1.2216
19101THY    HP764835   6.328   3.907   2.229 -1.4711  0.3070  0.6511
19101THY    CA364836   6.225   4.250   2.021 -0.0741  0.3574 -0.1345
19101THY    HA364837   6.317   4.264   2.077  0.9445 -1.5042  0.9945
19101THY    CA464838   6.196   4.349   1.929 -0.6465  0.8995 -0.2270
19101THY    HA464839   6.270   4.426   1.912  0.1325  1.0154 -0.9379
19101THY    CA564840   6.084   4.335   1.847 -0.1526 -0.0591  0.3680
19101THY    CM164841   6.063   4.434   1.741 -0.1394 -0.3519 -0.2010
19101THY    HM164842   6.129   4.521   1.749  0.2133 -2.0776 -0.2775
19101THY    HM264843   5.959   4.468   1.734 -0.7762 -1.6407 -2.2802
19101THY    HM364844   6.107   4.391   1.650  1.3466 -0.5634  1.5944
19101THY    CA664845   5.999   4.222   1.863 -0.2023 -0.0203 -0.0385
19101THY    HA664846   5.912   4.203   1.800 -0.9943  1.7666 -3.0310
19102THY      O64847   0.860   6.033   4.491 -1.1033  0.0069  0.2093
19102THY     HO64848   0.764   6.016   4.485 -0.9465  0.5623 -0.9735
19102THY    CA164849   0.895   6.115   4.387 -0.3586 -0.0469 -0.7898
19102THY    CA264850   1.030   6.148   4.356  0.7380 -0.2364  0.6689
19102THY    CP164851   1.139   6.083   4.451 -0.0032 -0.2595 -0.6372
19102THY    HP164852   1.108   5.984   4.484  0.2188 -0.1655 -0.6750
19102THY    CP264853   1.171   6.177   4.565 -0.2857 -1.4410 -0.5469
19102THY    HP264854   1.269   6.165   4.610 -0.0018 -1.9030 -0.0436
19102THY    HP364855   1.110   6.163   4.654  0.9992 -0.3472  0.5098
19102THY    HP464856   1.175   6.283   4.535  1.2723 -1.3944 -0.5698
19102THY    CP364857   1.267   6.069   4.373 -0.0658  0.5622  0.3903
19102THY    HP564858   1.306   6.169   4.347  1.2724 -1.3399 -0.5637
19102THY    HP664859   1.250   6.016   4.278 -1.9085  0.6390  0.7722
19102THY    HP764860   1.349   6.014   4.419  1.3338 -1.5247  0.6022
19102THY    CA364861   1.063   6.231   4.251 -0.0914 -0.0839  0.6553
19102THY    HA364862   1.165   6.246   4.219 -0.8684 -1.7702  2.7824
19102THY    CA464863   0.957   6.280   4.166  0.2152 -0.1564  0.1059
19102THY    HA464864   0.978   6.340   4.078  3.2603 -0.0562 -0.6490
19102THY    CA564865   0.818   6.260   4.203  0.0537  0.1058  1.3659
19102THY    CM164866   0.703   6.310   4.121  0.6435  0.0476  0.0406
19102THY    HM164867   0.619   6.240   4.112 -0.2715  0.0473  1.0988
19102THY    HM264868   0.738   6.333   4.020  1.2036 -0.0481 -1.1787
19102THY    HM364869   0.664   6.400   4.170  5.3758 -0.8955  2.9269
19102THY    CA664870   0.791   6.182   4.314 -0.4608 -0.3499  0.2172
19102THY    HA664871   0.686   6.165   4.336 -1.3688 -2.2962  2.7207
19103THY      O64872   0.588   4.013   2.289 -0.7865 -0.2961 -0.2367
19103THY     HO64873   0.566   3.944   2.225 -0.3574 -1.5319  0.7509
19103THY    CA164874   0.698   4.071   2.230  0.0717 -0.2442 -0.6658
19103THY    CA264875   0.744   4.200   2.274 -0.4058  0.1184  0.3862
19103THY    CP164876   0.667   4.279   2.382 -0.0201 -0.4572 -0.5058
19103THY    HP164877   0.561   4.259   2.361 -0.5159  1.9939 -0.6546
19103THY    CP264878   0.690   4.433   2.385 -0.4194  0.2876 -0.3709
19103THY    HP264879   0.672   4.484   2.290 -0.9366  0.1432 -0.8084
19103THY    HP364880   0.795   4.460   2.400 -0.2160  0.6480 -1.3201
19103THY    HP464881   0.632   4.485   2.463 -4.0004 -1.9883 -0.5325
19103THY    CP364882   0.689   4.220   2.521 -0.4484 -0.4846  0.8868
19103THY    HP564883   0.639   4.283   2.595 -1.7141 -1.1234  0.6685
19103THY    HP664884   0.798   4.218   2.530 -0.0416 -3.9462 -1.7432
19103THY    HP764885   0.649   4.118   2.534  3.0810 -0.8737 -0.6785
19103THY    CA364886   0.858   4.249   2.212 -0.3033 -0.2237 -0.7402
19103THY    HA364887   0.898   4.348   2.232  1.6391  2.8702 -1.9927
19103THY    CA464888   0.921   4.180   2.108 -0.1922  0.4755 -0.3159
19103THY    HA464889   1.011   4.222   2.062 -0.9044 -0.3030  0.4024
19103THY    CA564890   0.870   4.051   2.063 -1.0444  0.3067  0.1426
19103THY    CM164891   0.941   3.984   1.954  0.3630  0.1234  1.3569
19103THY    HM164892   0.975   4.060   1.883 -1.7639 -0.9541  1.3963
19103THY    HM264893   0.872   3.922   1.895 -0.4760  3.8701 -1.6354
19103THY    HM364894   1.029   3.927   1.982 -1.2714  2.5153 -0.1808
19103THY    CA664895   0.760   3.998   2.127  1.0205 -0.7501 -0.2840
19103THY    HA664896   0.734   3.897   2.095 -1.2864  0.7437 -0.2195
19104THY      O64897   3.906   4.356   1.808  0.1857  0.3679 -0.3810
19104THY     HO64898   3.879   4.448   1.824 -0.1123  2.8790 -0.8494
19104THY    CA164899   3.965   4.340   1.928  1.1120  0.2371  0.5124
19104THY    CA264900   4.066   4.249   1.950 -0.1381 -0.1232 -1.1336
19104THY    CP164901   4.130   4.178   1.829 -0.5580 -0.3448 -0.5373
19104THY    HP164902   4.123   4.233   1.735  1.6376 -0.1050  0.2640
19104THY    CP264903   4.066   4.040   1.817 -0.2655 -0.1733 -0.7132
19104THY    HP264904   4.074   4.004   1.714  1.6142 -1.2918  2.4533
19104THY    HP364905   3.958   4.048   1.833 -0.4254 -0.5715 -1.8088
19104THY    HP464906   4.107   3.962   1.883  2.1826 -0.1422  0.4876
19104THY    CP364907   4.287   4.153   1.836  0.7805  0.0795 -0.3891
19104THY    HP564908   4.338   4.241   1.876  1.8351 -0.9963 -0.4871
19104THY    HP664909   4.327   4.135   1.735  2.4171  1.0489 -2.6918
19104THY    HP764910   4.304   4.071   1.907 -1.9051 -0.4581 -1.5221
19104THY    CA364911   4.116   4.234   2.076 -0.2600  0.0653 -0.1765
19104THY    HA364912   4.193   4.161   2.101  0.2580  0.1663  0.3906
19104THY    CA464913   4.071   4.314   2.181  0.2786 -0.3067  0.1022
19104THY    HA464914   4.113   4.307   2.280 -1.0098  0.2531  0.0142
19104THY    CA564915   3.975   4.416   2.161 -0.2717  0.3190  0.6934
19104THY    CM164916   3.922   4.508   2.258  0.4963 -0.7234 -0.4123
19104THY    HM164917   3.815   4.528   2.256  0.3706  0.4745 -0.8689
19104THY    HM264918   3.976   4.603   2.257 -1.0617  0.2066  0.5285
19104THY    HM364919   3.936   4.463   2.357 -0.2874 -0.5981 -0.3903
19104THY    CA664920   3.919   4.423   2.029  1.2185  0.0833 -0.1064
19104THY    HA664921   3.846   4.498   1.999  1.3640 -2.1508 -0.8016
19105THY      O64922   6.983   2.794   3.655  0.2848 -0.6268  0.4523
19105THY     HO64923   6.894   2.772   3.622 -0.2626  1.6725 -1.1421
19105THY    CA164924   7.070   2.710   3.586  0.6508 -0.0922  0.2477
19105THY    CA264925   7.188   2.763   3.525  0.2326  0.1341 -0.2892
19105THY    CP164926   7.233   2.911   3.541  0.3804  0.4008  0.4377
19105THY    HP164927   7.148   2.973   3.572 -0.1177  0.6013 -0.3378
19105THY    CP264928   7.299   2.968   3.420  1.0188 -0.2180  0.2858
19105THY    HP264929   7.241   2.966   3.327 -0.4164  0.6131 -2.1071
19105THY    HP364930   7.393   2.920   3.392  1.5100  0.1921  1.0025
19105THY    HP464931   7.328   3.070   3.448  2.1312 -0.0780 -0.0631
19105THY    CP364932   7.327   2.924   3.663 -0.6630  0.4663  0.0213
19105THY    HP564933   7.423   2.882   3.630 -1.3107 -1.1442 -0.2847
19105THY    HP664934   7.287   2.872   3.750 -4.2450 -0.8196  0.3512
19105THY    HP764935   7.360   3.027   3.681  0.2776  1.5827 -0.4559
19105THY    CA364936   7.265   2.672   3.450  0.0239  0.3148  0.4233
19105THY    HA364937   7.358   2.712   3.412 -0.4088 -0.8547  0.3574
19105THY    CA464938   7.229   2.538   3.427 -0.0956  0.0783 -0.3736
19105THY    HA464939   7.291   2.473   3.366 -1.8560  0.1902 -2.2779
19105THY    CA564940   7.108   2.491   3.488 -0.3583  0.3169  0.3669
19105THY    CM164941   7.080   2.345   3.461 -0.3822 -0.0136  0.0636
19105THY    HM164942   7.045   2.321   3.360 -1.4139 -0.3154  2.4994
19105THY    HM264943   7.003   2.313   3.533  2.9237  2.6941 -2.6779
19105THY    HM364944   7.164   2.281   3.490 -0.6714 -1.0170 -0.8013
19105THY    CA664945   7.028   2.572   3.565  0.2074  0.1014  0.4832
19105THY    HA664946   6.942   2.528   3.615  0.6715 -0.5867 -1.2961
19106THY      O64947   7.945   0.179   2.517  0.1313  0.2309  0.9647
19106THY     HO64948   7.863   0.206   2.473  1.4079 -0.8337  3.4909
19106THY    CA164949   8.023   0.287   2.528  0.5107 -0.0684 -0.0330
19106THY    CA264950   8.161   0.282   2.555  0.3838 -0.4178  0.1315
19106THY    CP164951   8.234   0.151   2.571 -0.6617 -0.4626  0.4417
19106THY    HP164952   8.177   0.061   2.545 -1.9488  1.9472  0.4931
19106THY    CP264953   8.272   0.125   2.725 -0.3252 -0.3566  0.0291
19106THY    HP264954   8.343   0.198   2.764  0.1706 -1.6284  0.2524
19106THY    HP364955   8.312   0.024   2.739 -0.8960 -0.2073 -0.1856
19106THY    HP464956   8.179   0.140   2.781 -0.6487 -0.3379 -1.8036
19106THY    CP364957   8.358   0.138   2.481 -0.1299 -0.1603  0.0223
19106THY    HP564958   8.335   0.162   2.376  0.0467 -0.2354 -0.1323
19106THY    HP664959   8.402   0.038   2.489 -0.5004  2.5020  0.0139
19106THY    HP764960   8.435   0.203   2.526  0.8780  0.2474 -1.4048
19106THY    CA364961   8.235   0.401   2.560 -0.5003  0.4282  0.7445
19106THY    HA364962   8.342   0.397   2.580 -0.7679  1.7738 -1.4828
19106THY    CA464963   8.172   0.526   2.532 -0.1804 -0.9512  0.0496
19106THY    HA464964   8.227   0.619   2.520 -2.6856 -1.9699  1.4797
19106THY    CA564965   8.033   0.534   2.514  0.0886  0.5416 -0.1443
19106THY    CM164966   7.964   0.654   2.478  0.2810  0.2521 -0.2052
19106THY    HM164967   7.938   0.661   2.372  0.2106  0.1601 -1.5828
19106THY    HM264968   8.007   0.747   2.516  1.1970 -1.3900  0.0871
19106THY    HM364969   7.861   0.647   2.515 -0.1376 -1.0821 -1.9062
19106THY    CA664970   7.961   0.416   2.504 -1.1878  0.8587  0.0405
19106THY    HA664971   7.856   0.419   2.476 -1.5680  1.7856 -2.1850
19107THY      O64972   5.231   4.544   6.019  0.0844  0.0771  0.6393
19107THY     HO64973   5.269   4.547   6.108  1.9252 -0.6537  0.2231
19107THY    CA164974   5.173   4.663   5.986 -0.2406 -0.4646  0.0030
19107THY    CA264975   5.072   4.673   5.890 -0.0601 -0.9661  1.2504
19107THY    CP164976   5.026   4.550   5.805 -0.8097 -0.1620 -1.0164
19107THY    HP164977   5.075   4.456   5.831  1.0588  0.3622  0.0437
19107THY    CP264978   5.067   4.575   5.657  0.2933  0.4355  0.8079
19107THY    HP264979   4.996   4.647   5.614 -1.3049  0.7446 -0.5152
19107THY    HP364980   5.054   4.484   5.598  0.9439 -1.3833  1.8457
19107THY    HP464981   5.171   4.610   5.657  1.1739 -2.2517 -1.4145
19107THY    CP364982   4.876   4.540   5.831  0.0826  0.1555  0.6515
19107THY    HP564983   4.845   4.471   5.751  2.7301 -0.4262  0.0260
19107THY    HP664984   4.809   4.625   5.813 -3.9957  0.0917 -2.2605
19107THY    HP764985   4.850   4.495   5.927 -1.1081 -0.1669  0.6132
19107THY    CA364986   5.020   4.802   5.865 -0.4603 -0.2576 -0.1027
19107THY    HA364987   4.956   4.816   5.778  0.2470 -0.5405  1.6687
19107THY    CA464988   5.073   4.915   5.929  0.4827  0.0975  0.3169
19107THY    HA464989   5.034   5.015   5.910 -1.2010 -1.5479 -0.5756
19107THY    CA564990   5.177   4.903   6.025  0.4770 -0.3064  0.8427
19107THY    CM164991   5.228   5.027   6.097 -0.0893  0.4812 -0.3622
19107THY    HM164992   5.140   5.084   6.128 -0.0108 -0.1144  0.0997
19107THY    HM264993   5.281   5.089   6.024 -2.0592 -0.0827  0.7422
19107THY    HM364994   5.293   5.001   6.181  0.8574 -0.0875  0.1227
19107THY    CA664995   5.229   4.771   6.052 -0.5702 -0.2605  0.1066
19107THY    HA664996   5.312   4.756   6.121 -1.2881  0.5802 -0.0751
19108THY      O64997   6.084   3.144   2.026 -0.9353 -0.1018 -0.6288
19108THY     HO64998   6.157   3.130   1.963  0.0539  1.2635 -2.0104
19108THY    CA164999   6.135   3.220   2.124 -0.2667 -0.0956 -0.2263
19108THY    CA265000   6.096   3.208   2.262 -1.2610 -0.0531 -0.4034
19108THY    CP165001   5.991   3.111   2.309  1.2359  0.1191  0.1387
19108THY    HP165002   5.934   3.078   2.222  0.9699  0.6982 -0.9572
19108THY    CP265003   5.884   3.181   2.407 -0.2025 -0.2949  0.0843
19108THY    HP265004   5.932   3.205   2.503 -2.0952  0.2503  1.8652
19108THY    HP365005   5.798   3.117   2.430  0.1437 -0.3449 -0.4126
19108THY    HP465006   5.841   3.268   2.358 -2.2757 -0.0482 -0.7538
19108THY    CP365007   6.039   2.981   2.381 -0.0941  0.3994  0.1118
19108THY    HP565008   6.100   2.916   2.317  0.2643  0.7642  0.0890
19108THY    HP665009   5.948   2.929   2.413 -1.4438 -0.2936  1.8969
19108THY    HP765010   6.090   3.008   2.474 -0.2691  0.5381 -0.0359
19108THY    CA365011   6.164   3.289   2.350 -0.4852 -0.2918  0.7493
19108THY    HA365012   6.140   3.292   2.455 -0.5807 -0.3202  1.0537
19108THY    CA465013   6.266   3.372   2.316  0.4440 -0.5270  0.4286
19108THY    HA465014   6.311   3.450   2.378 -2.2732  0.5379  1.2762
19108THY    CA565015   6.298   3.390   2.181 -0.8099  0.4906 -0.3017
19108THY    CM165016   6.395   3.495   2.145 -0.7423  0.6397  0.0037
19108THY    HM165017   6.396   3.511   2.037 -0.5950  0.7259  0.6098
19108THY    HM265018   6.496   3.458   2.163 -0.7728  1.6236  0.3643
19108THY    HM365019   6.362   3.589   2.192 -2.5427 -2.2871  0.9688
19108THY    CA665020   6.239   3.312   2.081  0.1306  0.0700  0.8114
19108THY    HA665021   6.258   3.333   1.976 -2.3915 -0.6729 -0.2221
19109THY      O65022   2.750   1.602   7.060  0.5612  0.0747 -0.1053
19109THY     HO65023   2.664   1.573   7.026  0.8553  0.4816 -1.4969
19109THY    CA165024   2.780   1.527   7.171  0.5450  0.2213  0.4156
19109THY    CA265025   2.893   1.559   7.246 -0.1826  0.4176 -0.0009
19109THY    CP165026   2.985   1.665   7.198  0.7270  0.0179 -0.5042
19109THY    HP165027   2.971   1.692   7.092  2.7059 -0.0568  0.4259
19109THY    CP265028   3.137   1.626   7.211  0.5355 -0.6931  0.3167
19109THY    HP265029   3.161   1.549   7.137  0.5253  0.3456 -0.7264
19109THY    HP365030   3.181   1.594   7.306  2.2313 -1.6353 -0.2832
19109THY    HP465031   3.201   1.713   7.190  0.6307 -0.1311  0.3858
19109THY    CP365032   2.955   1.784   7.297 -0.5714 -0.6133 -0.0974
19109THY    HP565033   2.859   1.832   7.272  0.8440 -1.4852  2.4318
19109THY    HP665034   3.019   1.866   7.264  0.3951  1.5539  0.0727
19109THY    HP765035   2.962   1.771   7.406 -1.9276 -0.5588 -0.5439
19109THY    CA365036   2.915   1.497   7.368  0.5844 -0.9349 -0.0712
19109THY    HA365037   3.010   1.512   7.418  0.9227 -1.0069 -1.7681
19109THY    CA465038   2.823   1.396   7.409 -0.2328  0.0012 -0.1215
19109THY    HA465039   2.845   1.341   7.500 -0.7805 -0.8035 -1.7228
19109THY    CA565040   2.718   1.350   7.324  1.1968 -0.4151 -0.0168
19109THY    CM165041   2.635   1.223   7.356 -0.0415 -0.3175  0.9639
19109THY    HM165042   2.579   1.235   7.450 -0.1387 -0.1929 -0.2689
19109THY    HM265043   2.693   1.130   7.362 -4.0610 -1.9505 -1.9751
19109THY    HM365044   2.553   1.213   7.283 -0.7157  0.1620  2.6473
19109THY    CA665045   2.697   1.421   7.203  0.0092 -0.9056  0.1572
19109THY    HA665046   2.614   1.392   7.139 -1.3921  0.4049  1.1164
19110THY      O65047   6.289   2.403   4.873  0.3934  0.2891  0.5697
19110THY     HO65048   6.213   2.353   4.909  0.0934 -2.3405 -1.0529
19110THY    CA165049   6.257   2.466   4.751  0.2884 -0.1192  0.1865
19110THY    CA265050   6.346   2.516   4.651 -0.6300 -0.3839 -0.7397
19110THY    CP165051   6.494   2.514   4.688  1.1088 -0.3729 -0.1136
19110THY    HP165052   6.507   2.479   4.791 -0.0173  1.1273  3.4336
19110THY    CP265053   6.568   2.648   4.657  0.1666 -0.4123 -0.0420
19110THY    HP265054   6.669   2.637   4.697 -0.1736  1.0999  1.8031
19110THY    HP365055   6.532   2.741   4.703 -0.0086 -2.2250  0.8460
19110THY    HP465056   6.597   2.672   4.554  0.2579 -0.5942 -0.9038
19110THY    CP365057   6.571   2.410   4.605 -0.2164  0.2954  0.6736
19110THY    HP565058   6.679   2.410   4.619 -0.0118 -0.3061 -2.7894
19110THY    HP665059   6.549   2.437   4.501  0.9522  0.4606  2.3757
19110THY    HP765060   6.535   2.309   4.629  0.4638  0.7988  0.5491
19110THY    CA365061   6.300   2.577   4.535 -0.1433  0.1517 -0.6061
19110THY    HA365062   6.363   2.612   4.453 -0.4071 -0.9821 -2.6557
19110THY    CA465063   6.164   2.575   4.513  0.3032 -0.4526 -0.9891
19110THY    HA465064   6.121   2.615   4.422 -2.6989  1.1042 -0.3264
19110THY    CA565065   6.071   2.528   4.612  0.6233  0.2035  0.3281
19110THY    CM165066   5.927   2.569   4.590  0.2570  0.5129  0.0814
19110THY    HM165067   5.924   2.679   4.582  1.0517  2.5298  0.2913
19110THY    HM265068   5.861   2.545   4.674 -3.3334 -2.5138 -1.6473
19110THY    HM365069   5.878   2.512   4.511 -2.3829  1.4241  0.9224
19110THY    CA665070   6.119   2.481   4.737 -0.0575 -0.0651  1.4444
19110THY    HA665071   6.048   2.446   4.812 -0.2214 -0.8824 -0.0524
19111THY      O65072   1.271   3.100   5.121  0.8016 -0.1237  0.3991
19111THY     HO65073   1.224   3.112   5.205 -1.6212 -1.0534 -1.5858
19111THY    CA165074   1.162   3.096   5.039  0.0975 -0.1232 -0.5961
19111THY    CA265075   1.166   3.162   4.907  0.4979  0.3718  0.6541
19111THY    CP165076   1.304   3.207   4.854 -0.1621 -0.5583  0.1740
19111THY    HP165077   1.353   3.273   4.926  0.8308 -2.7755  2.0406
19111THY    CP265078   1.309   3.299   4.732  0.3194 -0.1869 -0.8227
19111THY    HP265079   1.417   3.314   4.714  0.1439 -1.6180 -1.0643
19111THY    HP365080   1.262   3.394   4.757 -0.2061 -2.5332 -0.3940
19111THY    HP465081   1.259   3.246   4.650 -1.2792  0.7063 -0.7376
19111THY    CP365082   1.393   3.088   4.823  0.1753  0.1192 -0.5036
19111THY    HP565083   1.472   3.120   4.754 -1.0911 -0.2409  2.1457
19111THY    HP665084   1.338   3.011   4.768  2.3973  0.1287 -2.2205
19111THY    HP765085   1.440   3.039   4.909  0.7984  0.7574  1.1582
19111THY    CA365086   1.046   3.178   4.840  0.4704  0.1397 -0.7923
19111THY    HA365087   1.042   3.236   4.748 -0.8255  0.7914  0.1705
19111THY    CA465088   0.924   3.131   4.893 -0.8153  0.2293 -0.1661
19111THY    HA465089   0.829   3.143   4.842 -0.3369 -0.8040 -0.6224
19111THY    CA565090   0.922   3.069   5.017 -0.4258  0.0442  0.3841
19111THY    CM165091   0.787   3.028   5.071 -0.2704  0.3053  0.2566
19111THY    HM165092   0.699   3.049   5.009 -1.3935  1.2181 -1.4381
19111THY    HM265093   0.782   3.065   5.175 -0.5498 -0.6259  3.1314
19111THY    HM365094   0.785   2.919   5.076  1.8360 -2.1604  0.0238
19111THY    CA665095   1.039   3.044   5.090  0.0487  0.9301  0.1433
19111THY    HA665096   1.020   2.999   5.187 -1.7733 -0.1914 -1.6228
19112THY      O65097   4.284   5.441   2.260 -0.1561 -0.0537  0.0295
19112THY     HO65098   4.359   5.476   2.209  0.1865 -0.5338 -1.3601
19112THY    CA165099   4.330   5.339   2.336  0.2486 -0.3277 -0.3165
19112THY    CA265100   4.263   5.287   2.451  1.2400 -0.6593  0.1178
19112THY    CP165101   4.124   5.347   2.496 -0.5120 -0.6664 -0.2663
19112THY    HP165102   4.101   5.414   2.412 -1.7066 -2.3929 -2.7000
19112THY    CP265103   4.122   5.426   2.619  0.0796 -0.5848 -0.6528
19112THY    HP265104   4.035   5.492   2.615  0.9432  0.2243  0.5721
19112THY    HP365105   4.216   5.481   2.627 -0.4038  1.1130 -0.0461
19112THY    HP465106   4.130   5.355   2.702  1.0667  0.6681  0.8578
19112THY    CP365107   4.013   5.237   2.496 -0.4768  0.0599 -0.5405
19112THY    HP565108   3.915   5.285   2.489  0.4489 -0.0915  1.4536
19112THY    HP665109   4.018   5.162   2.576 -0.0539  0.3633 -0.1996
19112THY    HP765110   4.027   5.191   2.398 -1.2073  0.4859 -1.6984
19112THY    CA365111   4.315   5.189   2.534 -0.7535  0.4664  0.4242
19112THY    HA365112   4.268   5.146   2.622 -0.0234  1.2475  1.1610
19112THY    CA465113   4.443   5.147   2.497  0.4790  1.1017 -0.4065
19112THY    HA465114   4.491   5.064   2.548  0.0016 -0.2831 -1.5739
19112THY    CA565115   4.521   5.203   2.392  0.8589  0.0499  0.2195
19112THY    CM165116   4.659   5.153   2.362  0.1417  0.0798 -0.1683
19112THY    HM165117   4.700   5.226   2.291 -1.5119  1.0618  1.8406
19112THY    HM265118   4.664   5.048   2.333 -2.5850 -0.7652 -0.1634
19112THY    HM365119   4.718   5.169   2.453  1.1514 -0.5110 -0.4370
19112THY    CA665120   4.454   5.286   2.301 -0.0576 -0.1280  1.1818
19112THY    HA665121   4.507   5.334   2.219  3.3317  1.9218  1.2653
19113THY      O65122   2.834   5.182   3.740 -0.2334  0.7568  0.6684
19113THY     HO65123   2.839   5.208   3.834  1.0447  0.6611  0.8429
19113THY    CA165124   2.749   5.260   3.663 -0.5215 -0.1826 -0.4310
19113THY    CA265125   2.741   5.247   3.519 -0.0074 -0.5193 -0.4084
19113THY    CP165126   2.844   5.149   3.449  0.1846 -0.3866 -0.3665
19113THY    HP165127   2.934   5.145   3.511  0.1418 -0.1708  1.3385
19113THY    CP265128   2.895   5.194   3.310  0.3454  0.1771  0.2144
19113THY    HP265129   2.991   5.147   3.286  0.6421  1.6215  0.0456
19113THY    HP365130   2.912   5.302   3.308 -0.2069 -0.6095  0.2959
19113THY    HP465131   2.822   5.161   3.235  0.3289  0.4453 -0.3712
19113THY    CP365132   2.793   5.002   3.442 -0.3383 -0.3175 -0.0769
19113THY    HP565133   2.873   4.929   3.426  1.1686  2.0350  0.9037
19113THY    HP665134   2.709   4.986   3.375  0.1483 -0.4545 -2.2680
19113THY    HP765135   2.755   4.971   3.540  0.3240 -0.4106 -1.2634
19113THY    CA365136   2.654   5.326   3.453  0.0577  0.2401 -0.4306
19113THY    HA365137   2.648   5.326   3.344  3.2615 -0.0679  1.5141
19113THY    CA465138   2.569   5.414   3.524  0.1892  0.2745 -0.4239
19113THY    HA465139   2.498   5.482   3.478 -0.0831  2.8539  1.1624
19113THY    CA565140   2.575   5.430   3.660  0.4242  0.3678  0.3995
19113THY    CM165141   2.490   5.535   3.729  0.2984 -0.1337  0.4797
19113THY    HM165142   2.460   5.505   3.830 -0.1849  0.2815  2.2543
19113THY    HM265143   2.399   5.550   3.670 -1.0708  1.5790 -0.7618
19113THY    HM365144   2.547   5.628   3.743 -0.3190  0.4421  0.7707
19113THY    CA665145   2.666   5.349   3.726  0.5647 -0.9370  0.0432
19113THY    HA665146   2.657   5.349   3.834  1.9957 -0.7355 -2.6160
19114THY      O65147   2.944   5.856   6.687 -0.0332 -0.5887  0.8224
19114THY     HO65148   3.002   5.796   6.638 -0.3296  1.0943 -0.9374
19114THY    CA165149   2.816   5.813   6.662 -0.5798 -0.9354 -0.2194
19114THY    CA265150   2.712   5.826   6.757  0.0443 -0.5011 -0.3043
19114THY    CP165151   2.720   5.926   6.873 -0.0001  0.3455 -0.3854
19114THY    HP165152   2.814   5.982   6.860  0.2528  0.9820 -0.6517
19114THY    CP265153   2.709   5.859   7.008  0.4425 -0.2204 -0.3787
19114THY    HP265154   2.615   5.803   7.006 -1.1227 -2.3263  2.0846
19114THY    HP365155   2.725   5.941   7.078 -1.0740  0.7469 -0.8629
19114THY    HP465156   2.788   5.784   7.014 -0.8962  1.6604 -1.7198
19114THY    CP365157   2.609   6.037   6.861  0.2961 -0.0760  0.6667
19114THY    HP565158   2.516   5.982   6.879  1.2798 -1.6104 -1.6431
19114THY    HP665159   2.608   6.073   6.758  1.5306  0.6417  2.9470
19114THY    HP765160   2.632   6.110   6.939  0.6253  0.1362  0.3450
19114THY    CA365161   2.591   5.753   6.742  0.0878  1.7461 -0.5757
19114THY    HA365162   2.503   5.767   6.805 -1.5953 -0.7466  0.9156
19114THY    CA465163   2.582   5.667   6.629  0.1701 -0.0119  0.2226
19114THY    HA465164   2.491   5.611   6.608 -2.6733  3.1111  3.1792
19114THY    CA565165   2.677   5.663   6.531 -0.2215  0.0631  0.1128
19114THY    CM165166   2.659   5.576   6.414 -0.7125  0.0354  0.7036
19114THY    HM165167   2.583   5.613   6.343 -0.2126 -1.6401 -1.3162
19114THY    HM265168   2.635   5.477   6.455 -1.1694  2.9596  1.9276
19114THY    HM365169   2.753   5.561   6.359 -0.8308  0.6330 -3.0185
19114THY    CA665170   2.796   5.736   6.548 -0.4663  0.1426 -0.4943
19114THY    HA665171   2.884   5.721   6.486  1.4567  2.6671 -0.2697
19115THY      O65172   8.573   3.955   7.534  0.5527  0.1143 -0.6833
19115THY     HO65173   8.543   4.030   7.588 -1.0928 -0.9951 -0.5034
19115THY    CA165174   8.489   3.860   7.566 -0.2231  0.2734  0.4267
19115THY    CA265175   8.493   3.739   7.490 -0.4001  0.3156  0.1364
19115THY    CP165176   8.596   3.714   7.384 -0.5944 -0.5313 -0.0921
19115THY    HP165177   8.662   3.799   7.364 -0.0402  0.9861 -0.1357
19115THY    CP265178   8.532   3.696   7.243  0.1699  0.9983 -0.6713
19115THY    HP265179   8.456   3.770   7.216 -0.3391  0.8344 -1.2433
19115THY    HP365180   8.469   3.607   7.230  0.3752 -0.7067 -0.5985
19115THY    HP465181   8.607   3.700   7.163  1.7167  2.0634 -4.1657
19115THY    CP365182   8.689   3.593   7.412 -0.3953  0.5744  0.9262
19115THY    HP565183   8.640   3.501   7.379  0.2670 -1.1974  1.1809
19115THY    HP665184   8.715   3.585   7.518 -0.9770  0.9233  3.0225
19115THY    HP765185   8.786   3.608   7.363  0.1953  0.7070 -1.9541
19115THY    CA365186   8.406   3.633   7.520  0.8076 -0.2970  0.5997
19115THY    HA365187   8.402   3.542   7.461 -1.1851  0.7043 -0.0275
19115THY    CA465188   8.316   3.651   7.623  0.6078  0.1200  0.3457
19115THY    HA465189   8.246   3.570   7.642 -0.0874 -1.5931  0.4962
19115THY    CA565190   8.314   3.767   7.698 -0.4206 -0.5747 -0.5296
19115THY    CM165191   8.222   3.786   7.817  0.1525 -0.3051  0.7439
19115THY    HM165192   8.195   3.696   7.873 -0.6178  0.4466  1.4232
19115THY    HM265193   8.133   3.837   7.778  0.1227 -1.8192 -0.3852
19115THY    HM365194   8.270   3.852   7.890  0.4628  0.5857 -0.4264
19115THY    CA665195   8.399   3.877   7.667 -0.4805 -0.5275 -0.0764
19115THY    HA665196   8.403   3.966   7.728  0.8756  0.2395 -0.6392
19116THY      O65197   0.180   9.079   4.810  0.6299 -0.2037 -0.5966
19116THY     HO65198   0.104   9.137   4.823  1.0181  0.0124 -0.1264
19116THY    CA165199   0.280   9.159   4.765 -0.5335 -0.5795 -0.0662
19116THY    CA265200   0.391   9.093   4.709  0.2033  0.4738 -0.5656
19116THY    CP165201   0.412   8.941   4.705  0.4273  0.4438  0.4580
19116THY    HP165202   0.313   8.895   4.695  0.7825 -1.1254 -0.0097
19116THY    CP265203   0.481   8.896   4.836  0.3705  0.2102  0.5408
19116THY    HP265204   0.423   8.925   4.924 -1.5178 -1.2019  1.2270
19116THY    HP365205   0.580   8.941   4.848 -0.6316  2.7957  2.2943
19116THY    HP465206   0.503   8.788   4.841  1.7164 -0.4182  0.7697
19116THY    CP365207   0.486   8.889   4.575  1.1022  0.3242  0.6298
19116THY    HP565208   0.466   8.783   4.555 -0.7683 -1.6957  1.2750
19116THY    HP665209   0.595   8.900   4.573  1.8150 -2.8929 -3.9236
19116THY    HP765210   0.432   8.949   4.500  1.3408  0.8865  1.5697
19116THY    CA365211   0.497   9.178   4.663 -0.2266 -0.1081 -0.5523
19116THY    HA365212   0.585   9.144   4.609 -1.1452 -0.7728 -1.9672
19116THY    CA465213   0.465   9.320   4.658 -1.0560 -0.3698 -0.3836
19116THY    HA465214   0.531   9.383   4.599  0.4757 -0.7235 -2.2370
19116THY    CA565215   0.350   9.377   4.709  0.8385 -0.5070 -0.7829
19116THY    CM165216   0.323   9.527   4.671 -1.0424 -0.5281  0.4965
19116THY    HM165217   0.418   9.578   4.690 -0.9398 -2.1872  0.9643
19116THY    HM265218   0.234   9.560   4.727 -2.8830 -0.4665 -3.8635
19116THY    HM365219   0.292   9.533   4.566  0.9171 -1.0603  2.8303
19116THY    CA665220   0.250   9.296   4.765 -0.6860  0.1775  0.2394
19116THY    HA665221   0.152   9.336   4.788 -0.7434  0.3709 -0.0150
19117THY      O65222   2.811   2.456   4.865 -0.1121  0.2324 -0.6656
19117THY     HO65223   2.743   2.483   4.929 -1.0873 -1.5145  1.4243
19117THY    CA165224   2.866   2.571   4.824  0.3818 -1.0139 -0.5511
19117THY    CA265225   2.876   2.595   4.685 -0.9845 -0.1280 -0.0919
19117THY    CP165226   2.820   2.493   4.586 -0.2743 -0.7510  0.4388
19117THY    HP165227   2.844   2.394   4.627 -0.9498 -1.1524  0.0987
19117THY    CP265228   2.898   2.492   4.449  0.1647 -0.5107  0.6257
19117THY    HP265229   2.833   2.428   4.388 -1.7623  2.4798 -0.4944
19117THY    HP365230   2.996   2.452   4.476 -0.6210  2.0957  0.2637
19117THY    HP465231   2.902   2.594   4.409 -1.7229 -2.0425  0.1730
19117THY    CP365232   2.666   2.517   4.569  0.3180  0.1627 -0.3199
19117THY    HP565233   2.618   2.435   4.513  1.6188 -1.2387 -0.1713
19117THY    HP665234   2.651   2.610   4.513 -0.9445  0.6179 -0.2239
19117THY    HP765235   2.616   2.527   4.666 -1.2004 -0.6119 -0.0051
19117THY    CA365236   2.943   2.718   4.650 -0.2717  0.0109 -0.4063
19117THY    HA365237   2.955   2.749   4.546 -0.3060  0.4623  1.1873
19117THY    CA465238   2.978   2.813   4.753  0.0184  0.7621 -0.0753
19117THY    HA465239   3.024   2.908   4.727  1.1180  3.5355  0.2534
19117THY    CA565240   2.961   2.783   4.886 -0.1831 -0.3777 -0.6303
19117THY    CM165241   2.995   2.889   4.993  0.2083  0.0680 -0.5521
19117THY    HM165242   3.051   2.832   5.068  1.0637 -1.3087 -1.5692
19117THY    HM265243   2.902   2.936   5.027 -0.4743 -1.1604 -0.9724
19117THY    HM365244   3.059   2.969   4.953  0.5688 -0.9645 -1.3381
19117THY    CA665245   2.901   2.670   4.927 -0.0532 -0.1960  0.5195
19117THY    HA665246   2.892   2.646   5.032  1.1160 -0.3850 -0.9055
19118THY      O65247   7.836   2.671   3.093 -0.0996 -0.7224 -0.0753
19118THY     HO65248   7.807   2.609   3.024  1.8617 -1.8265  0.1516
19118THY    CA165249   7.935   2.606   3.170  0.2014 -0.4998 -0.2441
19118THY    CA265250   8.040   2.684   3.231  0.1790  0.0557  0.0837
19118THY    CP165251   8.033   2.842   3.223  0.7270  0.1229 -0.4926
19118THY    HP165252   7.943   2.868   3.166  0.0705  0.5764 -1.6993
19118THY    CP265253   8.157   2.890   3.148  0.2521  0.0187  0.3883
19118THY    HP265254   8.150   2.991   3.106 -1.1934 -0.3877  0.1424
19118THY    HP365255   8.173   2.822   3.063 -0.5330  0.4567 -0.3720
19118THY    HP465256   8.250   2.891   3.206 -0.0563  0.5908 -1.1654
19118THY    CP365257   8.034   2.896   3.365 -0.1302  0.7800 -0.3501
19118THY    HP565258   8.043   3.005   3.355 -1.3266  0.0226 -0.3057
19118THY    HP665259   8.124   2.865   3.421  1.9257 -1.5634  1.0374
19118THY    HP765260   7.938   2.870   3.410 -1.0030 -0.2732  0.9577
19118THY    CA365261   8.144   2.617   3.300  0.1066 -0.1875 -0.1668
19118THY    HA365262   8.224   2.676   3.343 -2.3875  1.3167  2.3537
19118THY    CA465263   8.145   2.479   3.302  0.0774 -0.2141 -0.0279
19118THY    HA465264   8.223   2.428   3.359 -1.7048  0.0620 -2.6505
19118THY    CA565265   8.043   2.406   3.239  0.3532 -0.0466 -0.2106
19118THY    CM165266   8.039   2.250   3.247 -0.0522 -0.1486 -0.3254
19118THY    HM165267   8.036   2.218   3.352 -2.7832  0.8459  2.6092
19118THY    HM265268   8.103   2.188   3.184  0.3827 -0.6787  0.6410
19118THY    HM365269   7.947   2.209   3.204 -0.2964  0.8856 -0.9049
19118THY    CA665270   7.944   2.467   3.170 -0.1056  0.4359  0.0653
19118THY    HA665271   7.871   2.411   3.112 -0.9134 -0.3205  1.7942
19119THY      O65272   2.793   3.147   6.175  0.2453 -0.3422 -0.0439
19119THY     HO65273   2.745   3.151   6.090  0.9273 -0.7979 -1.2699
19119THY    CA165274   2.744   3.031   6.230  0.0078  1.0255 -0.2319
19119THY    CA265275   2.802   2.985   6.353  0.6196  0.3888 -0.5422
19119THY    CP165276   2.921   3.056   6.413  0.3082 -0.4639  0.1106
19119THY    HP165277   2.919   3.163   6.388  0.9311  2.3852  0.8822
19119THY    CP265278   3.053   3.000   6.358  0.2439 -0.1649  0.7601
19119THY    HP265279   3.049   2.948   6.262  1.2185  1.0770 -1.7918
19119THY    HP365280   3.090   2.919   6.422 -0.1824  1.9004  2.0901
19119THY    HP465281   3.133   3.074   6.346  0.6690  1.6563  0.6511
19119THY    CP365282   2.943   3.058   6.568  0.2696 -0.7012  0.3931
19119THY    HP565283   2.970   2.962   6.612  0.2783 -0.1621  0.6409
19119THY    HP665284   2.856   3.085   6.630  1.2630  0.7032  0.4120
19119THY    HP765285   3.022   3.132   6.585  0.4636 -2.5056  0.6578
19119THY    CA365286   2.745   2.875   6.423 -0.4686 -0.2929 -1.2843
19119THY    HA365287   2.790   2.849   6.518 -3.3853  2.0337  1.3042
19119THY    CA465288   2.623   2.822   6.381 -0.7951  1.3462  0.1108
19119THY    HA465289   2.580   2.741   6.440  1.8945 -0.9792 -3.2372
19119THY    CA565290   2.572   2.865   6.254 -0.2943 -1.0764 -0.0668
19119THY    CM165291   2.443   2.790   6.207 -0.4460  0.6368 -0.3263
19119THY    HM165292   2.359   2.854   6.236  0.3405 -0.3810  1.2391
19119THY    HM265293   2.421   2.710   6.278 -0.6243  0.6861 -0.2347
19119THY    HM365294   2.434   2.753   6.104  2.5367  0.3412 -0.4488
19119THY    CA665295   2.629   2.972   6.180 -0.1661  0.0341 -0.5979
19119THY    HA665296   2.575   3.014   6.096 -0.0150 -0.5419 -1.5125
19120THY      O65297   4.364   2.957   5.103  0.1050  0.2680 -0.1201
19120THY     HO65298   4.372   2.867   5.139  0.4924 -0.8495 -0.5507
19120THY    CA165299   4.490   2.991   5.071  0.5692 -0.2441 -0.6201
19120THY    CA265300   4.529   3.054   4.951  0.5917  0.6061 -0.2844
19120THY    CP165301   4.422   3.081   4.840  0.3993 -0.2495 -0.1164
19120THY    HP165302   4.336   3.013   4.848 -1.2745  0.1331  1.9317
19120THY    CP265303   4.482   3.070   4.699  0.3299  0.6068 -0.3703
19120THY    HP265304   4.547   3.157   4.683  1.6277 -0.5946 -1.5149
19120THY    HP365305   4.409   3.076   4.617  1.9326 -0.8641 -0.2953
19120THY    HP465306   4.533   2.974   4.688 -0.2683  0.1140 -0.6357
19120THY    CP365307   4.351   3.216   4.863  0.2231 -0.0917 -0.2714
19120THY    HP565308   4.260   3.214   4.803  0.2755 -0.1760 -0.1285
19120THY    HP665309   4.424   3.294   4.839  0.1075 -1.5057 -0.5839
19120THY    HP765310   4.320   3.205   4.968  1.1567  0.0415 -1.9202
19120THY    CA365311   4.653   3.114   4.943 -0.7722 -0.2401 -0.5943
19120THY    HA365312   4.680   3.177   4.859 -1.5259 -0.8523 -1.0731
19120THY    CA465313   4.742   3.101   5.050  0.1020  0.0381 -0.7887
19120THY    HA465314   4.835   3.157   5.058  0.3946 -2.1373 -0.8859
19120THY    CA565315   4.706   3.023   5.162  0.4546  0.2313 -0.3980
19120THY    CM165316   4.807   2.998   5.273 -0.4257 -0.4483 -0.3878
19120THY    HM165317   4.779   2.928   5.353  0.3104 -0.4331 -0.6765
19120THY    HM265318   4.817   3.086   5.337  0.1511  1.3271 -1.6796
19120THY    HM365319   4.910   2.981   5.239 -0.7136 -1.0926 -0.8810
19120THY    CA665320   4.580   2.980   5.182 -0.1948  0.1829  0.0503
19120THY    HA665321   4.557   2.930   5.276 -0.2167 -0.7022 -1.6606
19121THY      O65322   7.576   3.482   2.459  0.4685  0.0926  0.1097
19121THY     HO65323   7.635   3.442   2.525  0.0057  0.6302  0.2968
19121THY    CA165324   7.473   3.533   2.531 -0.6750  0.5381  0.1230
19121THY    CA265325   7.419   3.660   2.501 -0.2550  0.6187  0.0266
19121THY    CP165326   7.466   3.746   2.386  0.1419 -0.5915 -0.1393
19121THY    HP165327   7.517   3.678   2.316 -1.5709 -0.3298 -1.7737
19121THY    CP265328   7.565   3.851   2.433 -0.9037 -0.6116 -0.1934
19121THY    HP265329   7.601   3.919   2.355 -1.3485 -1.0309 -0.4385
19121THY    HP365330   7.659   3.807   2.468 -0.9308  3.3670  2.3786
19121THY    HP465331   7.525   3.901   2.522  0.1776 -0.7548  0.9869
19121THY    CP365332   7.358   3.820   2.303  0.1353  0.3700 -0.3750
19121THY    HP565333   7.398   3.900   2.240  1.9293  0.3642 -1.2338
19121THY    HP665334   7.285   3.861   2.374 -1.0043 -0.9944  0.0315
19121THY    HP765335   7.299   3.757   2.236 -2.7611  3.0661 -0.7907
19121THY    CA365336   7.316   3.704   2.589  0.4425 -0.0283  0.7487
19121THY    HA365337   7.260   3.797   2.580 -1.2766 -1.7978 -0.3745
19121THY    CA465338   7.283   3.632   2.707  0.5923  0.5794  0.5339
19121THY    HA465339   7.201   3.670   2.768  0.4621  0.9394 -0.3027
19121THY    CA565340   7.343   3.507   2.731 -0.3922  0.3030  0.1815
19121THY    CM165341   7.303   3.427   2.850 -0.1056  0.4568 -0.3814
19121THY    HM165342   7.212   3.465   2.897 -1.1374 -0.3911 -1.6828
19121THY    HM265343   7.379   3.427   2.930 -1.9091  2.2663  0.5691
19121THY    HM365344   7.285   3.321   2.826  1.5419  0.9334 -0.8119
19121THY    CA665345   7.435   3.456   2.642 -0.3582  0.2587  0.0031
19121THY    HA665346   7.482   3.360   2.662  0.9817 -2.6974 -0.0640
19122THY      O65347   4.430   4.071   5.821  0.0455  0.5596 -0.3181
19122THY     HO65348   4.446   4.107   5.732  2.0189  1.0876  0.2348
19122THY    CA165349   4.431   3.934   5.804  0.1091  0.1954  0.2109
19122THY    CA265350   4.413   3.849   5.914  0.2329  0.1768  0.3049
19122THY    CP165351   4.373   3.906   6.050 -0.1309  0.0551  0.2670
19122THY    HP165352   4.381   4.015   6.054  1.7192  0.3193  0.1632
19122THY    CP265353   4.471   3.853   6.149 -0.6042 -0.0438  0.2135
19122THY    HP265354   4.437   3.879   6.250  0.8356  0.5009  0.0629
19122THY    HP365355   4.572   3.893   6.136  0.1874 -0.1866 -1.7180
19122THY    HP465356   4.478   3.744   6.142 -1.9110  0.6759  0.0607
19122THY    CP365357   4.229   3.876   6.093  0.3742  0.4538  0.3083
19122THY    HP565358   4.160   3.924   6.023  0.9604 -0.8393 -0.6615
19122THY    HP665359   4.200   3.895   6.197  3.3745  1.4430  0.0255
19122THY    HP765360   4.217   3.768   6.078  2.8247  4.0750 -0.6599
19122THY    CA365361   4.422   3.706   5.892  0.9050  1.1924 -0.4486
19122THY    HA365362   4.409   3.635   5.973 -1.1431  1.4014  0.0870
19122THY    CA465363   4.428   3.651   5.762 -0.3654  0.2303 -0.7756
19122THY    HA465364   4.436   3.544   5.743  2.5762 -1.5149 -0.3384
19122THY    CA565365   4.453   3.739   5.652 -1.0484 -0.4599  0.7549
19122THY    CM165366   4.484   3.684   5.519  0.3093  0.6647 -0.0009
19122THY    HM165367   4.391   3.662   5.465  0.6158 -0.9058  2.2614
19122THY    HM265368   4.540   3.590   5.516 -0.3727 -1.6817 -0.3784
19122THY    HM365369   4.539   3.763   5.468 -1.1057 -0.6597  0.1560
19122THY    CA665370   4.448   3.881   5.670 -0.1079 -0.4851  0.1440
19122THY    HA665371   4.464   3.947   5.585  1.3439  0.5028  1.1117
19123THY      O65372   0.364   7.923   3.674 -0.3866 -0.1336 -1.1197
19123THY     HO65373   0.272   7.945   3.698 -0.0174 -0.8960  1.6626
19123THY    CA165374   0.447   7.964   3.779 -0.3468  0.4156 -0.3003
19123THY    CA265375   0.577   7.924   3.784 -0.7078 -0.1473 -0.4721
19123THY    CP165376   0.640   7.835   3.676 -1.0607 -0.5124  0.5380
19123THY    HP165377   0.568   7.826   3.594 -0.0147 -1.8252  3.1573
19123THY    CP265378   0.688   7.697   3.725 -0.2925  0.3192 -0.6425
19123THY    HP265379   0.742   7.706   3.820 -3.1022  1.8577  1.7572
19123THY    HP365380   0.758   7.649   3.656  0.4060  1.2278 -0.9620
19123THY    HP465381   0.606   7.626   3.739  0.1341  1.3104 -0.9567
19123THY    CP365382   0.761   7.913   3.618 -0.0283 -0.4870  0.1282
19123THY    HP565383   0.734   7.994   3.550  0.0589 -1.6057 -0.7536
19123THY    HP665384   0.832   7.847   3.566 -0.3419 -0.4863 -0.2152
19123THY    HP765385   0.835   7.937   3.696  0.5213 -0.6091 -1.0982
19123THY    CA365386   0.659   7.953   3.900  0.2991 -0.1491  0.1426
19123THY    HA365387   0.760   7.916   3.911 -0.7112 -2.7880 -3.9993
19123THY    CA465388   0.607   8.041   3.998 -0.4913 -0.0297  0.8320
19123THY    HA465389   0.679   8.061   4.077  3.4505 -2.8052 -1.2448
19123THY    CA565390   0.462   8.067   3.997  0.4366  0.6789  0.2819
19123THY    CM165391   0.397   8.149   4.106  0.5481  0.4262 -0.1565
19123THY    HM165392   0.321   8.221   4.074  1.9566 -1.9207  0.3860
19123THY    HM265393   0.469   8.199   4.172 -0.5028 -0.1612  2.3054
19123THY    HM365394   0.338   8.082   4.170 -0.1366 -0.1223 -0.0861
19123THY    CA665395   0.383   8.035   3.884 -0.6116  0.1411  0.3552
19123THY    HA665396   0.280   8.070   3.882  0.3076  1.4051  3.4424
19124THY      O65397   4.689   3.053   6.204  0.4258  0.2771  0.1431
19124THY     HO65398   4.599   3.032   6.235  0.2268 -0.5036 -0.1969
19124THY    CA165399   4.774   3.069   6.310 -0.6465 -0.1533  0.1241
19124THY    CA265400   4.914   3.092   6.297 -0.1943 -0.1168  0.1088
19124THY    CP165401   4.991   3.082   6.165  0.4789  0.0123 -0.7332
19124THY    HP165402   4.924   3.071   6.079  1.6979 -0.7410 -2.8762
19124THY    CP265403   5.075   2.961   6.169  0.7076  0.8033 -0.6590
19124THY    HP265404   5.014   2.874   6.191  0.0915 -0.0977 -0.4736
19124THY    HP365405   5.154   2.966   6.244  0.8068  0.6818 -0.3367
19124THY    HP465406   5.119   2.955   6.068 -0.8234 -0.3406  3.5912
19124THY    CP365407   5.066   3.215   6.135 -0.0901  0.7900  0.6703
19124THY    HP565408   5.010   3.306   6.159  2.2068 -1.0931  2.7268
19124THY    HP665409   5.101   3.220   6.031 -0.4878  0.6918  1.7216
19124THY    HP765410   5.147   3.219   6.209  1.0272 -0.4328  1.9100
19124THY    CA365411   4.985   3.119   6.418  0.1546  0.0747  0.1259
19124THY    HA365412   5.092   3.129   6.424  0.1482  2.4790 -0.6778
19124THY    CA465413   4.914   3.147   6.538 -0.6724 -0.1999  0.2641
19124THY    HA465414   4.982   3.188   6.612  0.1486  0.1043 -1.5454
19124THY    CA565415   4.780   3.132   6.548 -0.3092 -0.2477 -0.3628
19124THY    CM165416   4.693   3.183   6.665  0.1273 -0.1412  0.0478
19124THY    HM165417   4.645   3.093   6.704  0.6846  3.6585  1.2275
19124THY    HM265418   4.608   3.245   6.634 -1.0550  1.6887 -0.5921
19124THY    HM365419   4.764   3.215   6.742 -0.2798  0.9792 -1.6651
19124THY    CA665420   4.714   3.087   6.430  0.2773 -0.0428 -0.2286
19124THY    HA665421   4.606   3.070   6.431  0.3620  2.5760 -1.1214
19125THY      O65422   2.410   1.519   5.032 -0.2816 -0.5898  0.0655
19125THY     HO65423   2.447   1.479   5.112  3.2238 -2.4629 -0.8517
19125THY    CA165424   2.474   1.639   5.010 -0.4221  0.1587 -0.0968
19125THY    CA265425   2.427   1.729   4.915  0.1064 -0.1288  0.3606
19125THY    CP165426   2.303   1.683   4.830 -0.2672 -0.3439 -0.4049
19125THY    HP165427   2.249   1.597   4.872  0.0664 -0.7890 -0.8410
19125THY    CP265428   2.339   1.634   4.683  0.4889  0.0223  0.6113
19125THY    HP265429   2.419   1.558   4.682  0.3670 -0.5440  0.4869
19125THY    HP365430   2.384   1.719   4.631  0.0200  0.0464  0.8745
19125THY    HP465431   2.253   1.588   4.633  0.6642  1.0907 -0.9753
19125THY    CP365432   2.197   1.790   4.809 -0.5103 -0.3694  0.6513
19125THY    HP565433   2.249   1.875   4.763 -1.1599 -2.2048  0.1007
19125THY    HP665434   2.158   1.827   4.905  0.7425  0.3918  0.0911
19125THY    HP765435   2.122   1.747   4.742 -0.8662  0.7765 -0.5776
19125THY    CA365436   2.489   1.858   4.908  0.3928  0.2502 -0.1820
19125THY    HA365437   2.455   1.939   4.845 -0.3273  1.0151  0.1259
19125THY    CA465438   2.613   1.885   4.972  0.2041  0.3911 -0.2814
19125THY    HA465439   2.677   1.972   4.960  0.9709  0.1557 -0.8690
19125THY    CA565440   2.657   1.788   5.064  0.2357  0.1728 -0.2475
19125THY    CM165441   2.786   1.813   5.137 -0.7993  0.0660 -0.5502
19125THY    HM165442   2.857   1.729   5.131 -0.6358 -1.9892 -0.2953
19125THY    HM265443   2.766   1.837   5.242  0.1933 -0.0919  1.1598
19125THY    HM365444   2.848   1.892   5.095  1.5730  1.8036 -1.3610
19125THY    CA665445   2.587   1.668   5.089  0.2309 -0.8711 -0.7233
19125THY    HA665446   2.628   1.598   5.162  1.5163 -2.0226 -1.2290
19126THY      O65447   2.420   7.178   6.835  0.1213  0.3015 -0.3159
19126THY     HO65448   2.475   7.134   6.902 -0.6766  0.1751 -1.5643
19126THY    CA165449   2.499   7.270   6.778 -0.0521 -0.3155  0.1075
19126THY    CA265450   2.471   7.335   6.656  0.9135  0.0265  0.1641
19126THY    CP165451   2.353   7.291   6.563  0.8021  0.1729 -0.6043
19126THY    HP165452   2.310   7.193   6.587  1.1503 -1.4329 -1.1731
19126THY    CP265453   2.411   7.279   6.422  0.5549  0.4507 -0.1550
19126THY    HP265454   2.328   7.259   6.353  0.5881  0.1930  0.5611
19126THY    HP365455   2.478   7.192   6.420 -0.4359  1.1126 -0.9565
19126THY    HP465456   2.464   7.365   6.379  0.6299 -1.4814 -1.1057
19126THY    CP365457   2.236   7.401   6.574  0.6476  0.3977 -0.4109
19126THY    HP565458   2.174   7.378   6.661 -0.7958 -0.4058  0.3482
19126THY    HP665459   2.178   7.404   6.481  1.3218 -0.0198 -0.0218
19126THY    HP765460   2.283   7.500   6.574 -2.6818  1.9893  1.3345
19126THY    CA365461   2.551   7.452   6.622 -0.1792  0.4301  0.9026
19126THY    HA365462   2.542   7.508   6.530  2.7540 -1.0325 -0.7757
19126THY    CA465463   2.657   7.489   6.697 -0.2227 -0.5936 -0.4985
19126THY    HA465464   2.709   7.583   6.685 -0.2076  2.8722  0.0442
19126THY    CA565465   2.680   7.420   6.820  0.1491  0.9573  0.3409
19126THY    CM165466   2.794   7.448   6.911  0.8310  0.5619 -0.2324
19126THY    HM165467   2.751   7.489   7.003  0.2123 -0.2136  0.9221
19126THY    HM265468   2.871   7.512   6.868  0.7411 -1.2977 -1.2774
19126THY    HM365469   2.842   7.353   6.938  0.6808  0.9530 -0.1992
19126THY    CA665470   2.603   7.311   6.856  0.7950  0.1004  0.5266
19126THY    HA665471   2.624   7.272   6.955 -0.0089  0.2674  0.4994
19127THY      O65472   6.942   7.634   3.193 -1.0004  0.1018 -0.1307
19127THY     HO65473   6.909   7.722   3.217 -2.1220 -0.2129 -0.4406
19127THY    CA165474   6.989   7.573   3.307  0.2716 -0.1940  0.4105
19127THY    CA265475   6.998   7.439   3.311 -0.3759 -0.4442  0.4036
19127THY    CP165476   6.976   7.356   3.184  0.3225 -0.3579  0.0618
19127THY    HP165477   6.994   7.422   3.098  1.4351 -0.8498 -0.8273
19127THY    CP265478   6.844   7.287   3.176 -0.0057  0.1342 -0.4755
19127THY    HP265479   6.834   7.235   3.272  1.5662  0.2326 -0.6475
19127THY    HP365480   6.844   7.226   3.084  0.0551 -0.8333  0.9532
19127THY    HP465481   6.761   7.357   3.166  0.2728  2.4667  0.2830
19127THY    CP365482   7.091   7.251   3.176  0.4847  0.3517 -0.0688
19127THY    HP565483   7.082   7.182   3.261 -2.0727  1.0910  1.0535
19127THY    HP665484   7.188   7.302   3.176  0.3181  1.0854  0.2728
19127THY    HP765485   7.093   7.199   3.080 -1.4489  0.8849 -1.2472
19127THY    CA365486   7.008   7.377   3.442  1.2489 -0.6308  0.3572
19127THY    HA365487   6.997   7.269   3.450 -0.9871  3.3755  0.7138
19127THY    CA465488   7.024   7.454   3.556 -0.5576 -0.0584  1.0506
19127THY    HA465489   7.035   7.393   3.645 -3.0429  0.2622  0.9913
19127THY    CA565490   7.028   7.589   3.553  0.0002  0.0537 -0.2439
19127THY    CM165491   7.046   7.665   3.684  0.8349  0.1556  0.1841
19127THY    HM165492   7.147   7.636   3.715  0.8177 -1.7736 -2.2514
19127THY    HM265493   6.987   7.637   3.772  1.5423  0.2414 -1.1423
19127THY    HM365494   7.052   7.774   3.671 -1.5207 -0.3672  0.3068
19127THY    CA665495   7.000   7.652   3.430 -0.0009  0.4163  0.4266
19127THY    HA665496   6.987   7.760   3.430  0.0648 -1.6684  0.4756
19128THY      O65497   0.853   6.692   3.776  0.5839  0.1282  0.1596
19128THY     HO65498   0.765   6.711   3.812  0.1858  0.1105 -1.5676
19128THY    CA165499   0.852   6.565   3.736 -0.7219  0.6384  0.2512
19128THY    CA265500   0.972   6.487   3.725 -0.1270  0.6364  0.1952
19128THY    CP165501   1.107   6.551   3.765  0.3133 -0.5608 -0.5048
19128THY    HP165502   1.111   6.657   3.736 -1.4607  1.0643  0.0757
19128THY    CP265503   1.228   6.487   3.706  0.1428 -0.3961  0.0243
19128THY    HP265504   1.225   6.475   3.597  1.3733 -0.3516 -0.9346
19128THY    HP365505   1.255   6.393   3.755 -1.4768  0.2775 -0.1264
19128THY    HP465506   1.317   6.549   3.724 -0.3222 -2.0093  1.2435
19128THY    CP365507   1.120   6.553   3.916  0.2474 -0.1594 -0.4372
19128THY    HP565508   1.026   6.593   3.955 -0.3721 -2.0421  0.0839
19128THY    HP665509   1.194   6.621   3.959 -0.7895 -0.6465  1.0642
19128THY    HP765510   1.136   6.451   3.952 -0.1825  0.1868 -0.3853
19128THY    CA365511   0.963   6.353   3.676 -0.3196  0.1249  0.6945
19128THY    HA365512   1.039   6.275   3.679 -1.7962 -1.1466 -0.8933
19128THY    CA465513   0.836   6.301   3.647 -0.2317 -0.7766  0.0403
19128THY    HA465514   0.814   6.195   3.632 -1.7459 -1.5467  0.4370
19128THY    CA565515   0.723   6.383   3.652  0.2300 -0.4493 -0.2792
19128THY    CM165516   0.583   6.330   3.616 -0.4161 -0.2131 -0.5573
19128THY    HM165517   0.594   6.309   3.508  1.5047 -0.8256  2.8965
19128THY    HM265518   0.510   6.410   3.630  1.5358  0.3389  1.2146
19128THY    HM365519   0.549   6.235   3.657  1.7866  1.3138 -0.7496
19128THY    CA665520   0.727   6.513   3.700 -0.1147 -0.5631  0.2044
19128THY    HA665521   0.636   6.568   3.721  0.8126 -0.7134  1.8677
19129THY      O65522   4.618   6.724   7.604 -0.1436  0.2271  0.0226
19129THY     HO65523   4.610   6.803   7.548  1.4200  0.0998  0.1067
19129THY    CA165524   4.584   6.618   7.521 -0.2765 -0.0828 -0.9779
19129THY    CA265525   4.573   6.485   7.565 -0.2799  0.2220 -0.2879
19129THY    CP165526   4.580   6.450   7.710  0.7434  0.3698 -0.5412
19129THY    HP165527   4.638   6.522   7.769 -0.9379  0.1939  1.0173
19129THY    CP265528   4.647   6.314   7.730 -0.0875 -0.1830  0.4144
19129THY    HP265529   4.747   6.308   7.686 -0.4017 -0.9793  0.8380
19129THY    HP365530   4.592   6.227   7.689 -0.8417  1.7213 -0.0517
19129THY    HP465531   4.656   6.297   7.838  1.2526 -0.3764 -0.2445
19129THY    CP365532   4.437   6.434   7.763 -0.3763 -0.0659  0.5263
19129THY    HP565533   4.372   6.371   7.701 -0.6647  2.0973 -1.4588
19129THY    HP665534   4.397   6.534   7.778  0.0313  1.1184  0.5313
19129THY    HP765535   4.438   6.392   7.864  0.9417 -1.0132 -1.9360
19129THY    CA365536   4.531   6.390   7.468 -1.2710  0.1988 -0.3315
19129THY    HA365537   4.511   6.286   7.494  0.6611 -1.9906 -1.3464
19129THY    CA465538   4.521   6.429   7.330  0.1022 -0.3855 -0.2123
19129THY    HA465539   4.490   6.353   7.259  2.3652 -0.6349 -0.9483
19129THY    CA565540   4.557   6.557   7.290 -0.0833 -0.0309 -0.0425
19129THY    CM165541   4.531   6.599   7.156 -0.3283  0.3532 -0.7924
19129THY    HM165542   4.608   6.673   7.128 -1.8790 -0.4026  0.6032
19129THY    HM265543   4.437   6.654   7.142  0.3661 -0.5750  0.1896
19129THY    HM365544   4.537   6.516   7.085 -0.4898 -0.0536 -0.4642
19129THY    CA665545   4.580   6.655   7.388  0.6685 -0.8786  0.4655
19129THY    HA665546   4.581   6.759   7.355 -0.7346 -0.2452  0.6943
19130THY      O65547   3.744   6.779   3.015  0.9032  0.0038  0.8030
19130THY     HO65548   3.837   6.753   3.018  0.2901  0.7052 -1.5638
19130THY    CA165549   3.729   6.823   2.894  0.2963  0.7034 -0.1117
19130THY    CA265550   3.612   6.841   2.821  0.4362 -1.0631 -0.3194
19130THY    CP165551   3.482   6.795   2.897  0.1207 -0.3292  0.1632
19130THY    HP165552   3.493   6.801   3.006 -0.3673 -0.0012 -2.9981
19130THY    CP265553   3.450   6.649   2.887  0.5342 -0.0255 -0.0820
19130THY    HP265554   3.471   6.620   2.783  2.2351  0.2115  0.1520
19130THY    HP365555   3.344   6.644   2.911  0.0314 -1.2472  2.8709
19130THY    HP465556   3.517   6.605   2.962 -0.9572  2.6028  1.8505
19130THY    CP365557   3.358   6.875   2.851  0.2795 -0.3812  0.2945
19130THY    HP565558   3.331   6.850   2.748  1.3350 -0.4524 -0.6556
19130THY    HP665559   3.382   6.982   2.858 -0.6548 -0.3273  0.5031
19130THY    HP765560   3.269   6.865   2.914 -0.7846 -1.7802  0.7628
19130THY    CA365561   3.617   6.892   2.687  1.0435  0.5594  0.4017
19130THY    HA365562   3.528   6.906   2.628  3.0813 -2.5697  1.0605
19130THY    CA465563   3.738   6.930   2.633  0.1690 -0.1588  1.0854
19130THY    HA465564   3.753   6.966   2.532 -0.5161 -0.6486  0.0344
19130THY    CA565565   3.857   6.901   2.703 -0.4531 -0.7574 -0.4610
19130THY    CM165566   3.990   6.940   2.637 -0.1558  0.2996  0.0362
19130THY    HM165567   4.036   6.868   2.569 -0.2128 -0.0225  0.2994
19130THY    HM265568   4.071   6.950   2.711  0.5965 -0.1371 -2.2972
19130THY    HM365569   3.986   7.034   2.580  1.1675  0.9992  0.5468
19130THY    CA665570   3.850   6.850   2.833  0.1345  0.5690 -0.0449
19130THY    HA665571   3.945   6.816   2.873  0.5345 -0.7798 -0.5510
19131THY      O65572   1.503   5.797   3.812 -0.4933  0.3780  1.1591
19131THY     HO65573   1.589   5.817   3.852  0.3642  0.6223 -2.3808
19131THY    CA165574   1.479   5.913   3.751 -0.1288  0.3380  0.3129
19131THY    CA265575   1.344   5.967   3.734 -0.0869 -0.1575 -0.9097
19131THY    CP165576   1.215   5.899   3.783  0.2471 -0.3140  0.2462
19131THY    HP165577   1.246   5.794   3.796  1.8548 -0.6628  0.6530
19131THY    CP265578   1.096   5.900   3.689 -0.3169  1.1917  0.2372
19131THY    HP265579   1.023   5.979   3.709 -0.1405 -1.2028  1.0809
19131THY    HP365580   1.046   5.802   3.687  1.7535 -1.9102 -0.8944
19131THY    HP465581   1.128   5.905   3.585 -0.0849  1.1954 -0.9071
19131THY    CP365582   1.179   5.952   3.924  0.0005 -0.0002  0.0399
19131THY    HP565583   1.265   5.938   3.990  0.0224 -0.0355  0.0096
19131THY    HP665584   1.086   5.904   3.957 -0.1235  2.6579  1.8731
19131THY    HP765585   1.157   6.060   3.917  0.7115 -1.9387  0.0959
19131THY    CA365586   1.326   6.094   3.676  0.1132  0.9439 -0.3122
19131THY    HA365587   1.224   6.123   3.653 -0.6031  2.1991 -1.7480
19131THY    CA465588   1.439   6.171   3.639  0.4996  0.7220  0.0620
19131THY    HA465589   1.423   6.262   3.582 -0.6081  0.1868 -0.4429
19131THY    CA565590   1.569   6.125   3.668  0.0195 -0.2081  0.6096
19131THY    CM165591   1.680   6.201   3.617 -0.2888 -0.4243  0.0972
19131THY    HM165592   1.763   6.179   3.684 -1.5502  1.9407  2.0450
19131THY    HM265593   1.668   6.309   3.632  0.5247  1.7983 -0.0879
19131THY    HM365594   1.698   6.185   3.510 -2.9785 -0.6584 -2.2073
19131THY    CA665595   1.590   5.998   3.719  1.0523 -0.4824  0.8858
19131THY    HA665596   1.691   5.960   3.732  1.5129 -2.5014  1.2712
19132THY      O65597   2.334   8.813   4.378 -0.0626  0.3174 -0.5548
19132THY     HO65598   2.259   8.808   4.440 -0.4172 -0.0019  0.4987
19132THY    CA165599   2.431   8.870   4.452 -0.4249 -0.6912 -0.5183
19132THY    CA265600   2.567   8.882   4.410 -1.0618 -0.5038 -0.1879
19132THY    CP165601   2.614   8.830   4.272 -0.2084  0.6685  0.3617
19132THY    HP165602   2.528   8.831   4.204 -0.9934  1.5905 -0.9782
19132THY    CP265603   2.659   8.683   4.287  0.1639  0.9236  0.6498
19132THY    HP265604   2.719   8.674   4.379  0.4633  0.8827  1.9937
19132THY    HP365605   2.702   8.637   4.197  1.1372  1.6651  0.0586
19132THY    HP465606   2.567   8.630   4.313 -1.8414 -0.7533  3.0904
19132THY    CP365607   2.722   8.918   4.217 -0.1053  0.0629  0.4149
19132THY    HP565608   2.731   8.912   4.108  0.1079  0.0488  0.9749
19132THY    HP665609   2.816   8.899   4.270 -0.1648 -0.3219 -1.0682
19132THY    HP765610   2.709   9.025   4.234 -0.9698 -1.2836  0.5443
19132THY    CA365611   2.653   8.956   4.491  0.0225 -0.4803 -0.3585
19132THY    HA365612   2.750   8.997   4.466 -0.7517  0.0661  1.9376
19132THY    CA465613   2.606   8.998   4.619  0.7191 -0.5185  1.1548
19132THY    HA465614   2.670   9.050   4.689 -1.1885  1.6297  0.7334
19132THY    CA565615   2.472   8.989   4.660  0.1829  0.1871  0.4470
19132THY    CM165616   2.430   9.055   4.789 -0.4494 -0.3129  0.1182
19132THY    HM165617   2.434   8.993   4.879  1.0386  0.7581  1.6578
19132THY    HM265618   2.336   9.110   4.777  0.7123 -0.8971  2.0961
19132THY    HM365619   2.508   9.128   4.812  2.0624  0.0543 -2.5047
19132THY    CA665620   2.385   8.915   4.580  0.1875 -0.2609  0.8079
19132THY    HA665621   2.285   8.900   4.618  0.2387 -0.9156 -1.5919
19133THY      O65622   1.686   7.813   7.223  0.2027  0.5766 -0.5948
19133THY     HO65623   1.702   7.906   7.246  4.5528 -0.4070 -0.8624
19133THY    CA165624   1.558   7.790   7.187 -0.0464  0.6055  0.5366
19133THY    CA265625   1.513   7.661   7.142  0.4279  0.1149 -0.2008
19133THY    CP165626   1.604   7.539   7.150 -0.0733  0.3003  0.0163
19133THY    HP165627   1.690   7.551   7.216  0.7025 -0.3000 -1.9051
19133THY    CP265628   1.654   7.498   7.008 -0.5303  0.0420  0.1927
19133THY    HP265629   1.577   7.449   6.948  0.2397 -0.6131 -0.2374
19133THY    HP365630   1.735   7.425   7.006 -1.9979  1.3597 -1.5685
19133THY    HP465631   1.695   7.580   6.948 -0.1628  0.2042  0.1271
19133THY    CP365632   1.553   7.414   7.218 -0.3548  0.2520  0.5036
19133THY    HP565633   1.627   7.334   7.218  0.3109  2.0469  1.0803
19133THY    HP665634   1.466   7.382   7.160  0.2510 -0.9818  1.0104
19133THY    HP765635   1.516   7.444   7.317  0.6014  0.4605  1.0254
19133THY    CA365636   1.378   7.648   7.090 -0.6871 -0.3158  0.1073
19133THY    HA365637   1.349   7.547   7.062  2.2029  0.6463 -1.0739
19133THY    CA465638   1.286   7.758   7.102  0.9218  0.0263 -0.0675
19133THY    HA465639   1.183   7.731   7.080  0.7031 -1.4180  1.7790
19133THY    CA565640   1.333   7.876   7.152  0.3404 -0.1079 -0.0859
19133THY    CM165641   1.231   7.991   7.151 -0.1299  0.1963  0.3333
19133THY    HM165642   1.166   7.987   7.239 -0.5551 -0.1819 -1.9930
19133THY    HM265643   1.170   7.990   7.059 -1.7111  1.2210 -0.0654
19133THY    HM365644   1.287   8.085   7.152  0.7060  0.1261 -0.1593
19133THY    CA665645   1.469   7.900   7.183 -0.5648 -0.4034  1.2109
19133THY    HA665646   1.501   8.000   7.211 -0.8348 -0.1053  1.2149
19134THY      O65647   8.131   7.409   6.702 -0.1902 -0.4697  0.3247
19134THY     HO65648   8.179   7.324   6.703  0.4942  1.0541  0.6846
19134THY    CA165649   8.020   7.406   6.770  0.7730 -0.2330 -0.1355
19134THY    CA265650   7.905   7.488   6.742 -0.6100  0.0584  0.5548
19134THY    CP165651   7.909   7.587   6.622 -0.2503  0.1342 -0.2410
19134THY    HP165652   7.997   7.581   6.558 -0.9220 -0.7775 -0.5011
19134THY    CP265653   7.894   7.732   6.662  0.8409  0.0840 -0.2232
19134THY    HP265654   7.971   7.759   6.735  1.5126 -0.4214 -0.7392
19134THY    HP365655   7.792   7.746   6.699  0.6492 -0.4778 -0.1051
19134THY    HP465656   7.896   7.791   6.569  0.0167 -0.7568 -1.4543
19134THY    CP365657   7.802   7.552   6.513 -0.1101 -0.7223 -0.0453
19134THY    HP565658   7.707   7.534   6.564  0.6875  0.3709 -1.3927
19134THY    HP665659   7.829   7.449   6.488  1.4942 -0.2529  0.2367
19134THY    HP765660   7.795   7.609   6.419  0.1292 -0.6156  0.1636
19134THY    CA365661   7.790   7.475   6.821 -0.1666  0.4210 -0.0470
19134THY    HA365662   7.702   7.538   6.811  0.5605  0.2574  0.9709
19134THY    CA465663   7.796   7.389   6.933 -0.2086  0.9793 -0.5290
19134THY    HA465664   7.705   7.374   6.990 -2.2152 -2.1633 -1.4275
19134THY    CA565665   7.913   7.313   6.959  0.1330 -0.5185 -0.6308
19134THY    CM165666   7.916   7.218   7.073 -0.2575  0.0287  0.1749
19134THY    HM165667   7.823   7.226   7.130  0.3172  0.8367  1.2698
19134THY    HM265668   8.000   7.253   7.133  0.4931 -1.4739  1.0474
19134THY    HM365669   7.935   7.116   7.037  0.5713 -1.7705  0.9079
19134THY    CA665670   8.021   7.322   6.876  0.0435  0.0339 -0.0532
19134THY    HA665671   8.109   7.260   6.892 -0.9458  1.9806 -1.0484
19135THY      O65672   4.452   3.315   5.863  0.0582 -0.7418 -0.0431
19135THY     HO65673   4.542   3.298   5.896  0.3535 -1.8814 -0.7562
19135THY    CA165674   4.398   3.192   5.868 -0.6358  0.0654  0.5893
19135THY    CA265675   4.263   3.164   5.848 -0.5982  0.6291 -0.8460
19135THY    CP165676   4.172   3.282   5.817 -0.2425  0.1091 -0.1336
19135THY    HP165677   4.231   3.355   5.760 -2.3856 -1.1886  0.6872
19135THY    CP265678   4.126   3.355   5.940  0.6982 -0.6425  0.2214
19135THY    HP265679   4.212   3.414   5.973  0.1127 -1.2712  1.4649
19135THY    HP365680   4.091   3.275   6.006  0.1002 -2.3718 -1.0178
19135THY    HP465681   4.049   3.431   5.922  0.7135  0.6592  0.5664
19135THY    CP365682   4.044   3.241   5.736 -0.5807  0.3712  0.5476
19135THY    HP565683   3.967   3.198   5.802  1.0184  0.6889 -2.0268
19135THY    HP665684   4.078   3.182   5.650  0.0919  0.3665  0.9271
19135THY    HP765685   3.991   3.329   5.700  0.0944  0.3565  0.9570
19135THY    CA365686   4.205   3.038   5.874 -0.4748  0.1668  0.8092
19135THY    HA365687   4.099   3.016   5.868 -0.3053  0.2915 -0.0739
19135THY    CA465688   4.292   2.938   5.924 -0.4532  0.1074  0.1706
19135THY    HA465689   4.262   2.834   5.938  0.7241 -1.3971 -0.4206
19135THY    CA565690   4.432   2.959   5.930 -0.2942 -0.0802  0.0662
19135THY    CM165691   4.526   2.841   5.950 -0.2791  0.5009 -0.1927
19135THY    HM165692   4.486   2.759   6.010 -2.6591 -2.0593 -1.0704
19135THY    HM265693   4.626   2.870   5.985 -0.0753 -0.3337  0.1730
19135THY    HM365694   4.531   2.791   5.852  0.2340 -0.2670  1.2835
19135THY    CA665695   4.475   3.084   5.910 -1.1923  0.0348 -0.5384
19135THY    HA665696   4.583   3.100   5.914 -1.3057 -0.1264  0.3147
19136THY      O65697   0.858   4.707   3.885 -0.1640 -0.6921 -0.3031
19136THY     HO65698   0.764   4.682   3.882 -0.0579  0.5393 -0.9111
19136THY    CA165699   0.928   4.606   3.841 -0.7676  0.3471  0.4571
19136THY    CA265700   1.065   4.606   3.820  0.4106  0.2285 -0.2585
19136THY    CP165701   1.151   4.714   3.883 -0.3916 -0.0946 -0.6133
19136THY    HP165702   1.093   4.790   3.937 -1.4717 -2.5338  0.4432
19136THY    CP265703   1.224   4.805   3.777  0.3662  0.1392 -0.2203
19136THY    HP265704   1.175   4.903   3.778 -0.0315  0.2775 -0.4156
19136THY    HP365705   1.209   4.764   3.677 -0.4553  0.0129  0.3591
19136THY    HP465706   1.330   4.818   3.803  1.3353 -1.7362 -3.3294
19136THY    CP365707   1.249   4.652   3.982  0.0860 -0.3955  0.1710
19136THY    HP565708   1.328   4.725   4.002  2.6425 -1.0131 -2.2697
19136THY    HP665709   1.292   4.553   3.962  1.5492  0.4062  0.6166
19136THY    HP765710   1.195   4.643   4.077 -0.7149 -1.0152 -2.3048
19136THY    CA365711   1.127   4.500   3.746  0.3207  1.3023  0.3968
19136THY    HA365712   1.235   4.500   3.731  0.1516 -0.0656  0.5071
19136THY    CA465713   1.047   4.394   3.687 -0.2898  0.2050 -0.8887
19136THY    HA465714   1.079   4.316   3.618 -1.8066  0.6467 -1.9686
19136THY    CA565715   0.911   4.395   3.715  0.1464 -0.2951  0.5721
19136THY    CM165716   0.817   4.291   3.653  0.3265  0.4873  0.6530
19136THY    HM165717   0.823   4.202   3.716  2.4355 -0.9884 -0.3263
19136THY    HM265718   0.865   4.252   3.562  0.6336 -0.2678  2.6719
19136THY    HM365719   0.716   4.320   3.622  0.8178  0.4554  2.5044
19136THY    CA665720   0.853   4.498   3.790 -0.5929  0.3003  0.2196
19136THY    HA665721   0.747   4.498   3.815 -0.5009  0.7810 -1.3369
19137THY      O65722   4.154   0.905   3.482 -0.0437 -0.2141 -0.0801
19137THY     HO65723   4.136   0.999   3.465  1.3365  3.0078  0.9114
19137THY    CA165724   4.249   0.861   3.396 -0.2179  0.2642 -0.0186
19137THY    CA265725   4.310   0.732   3.410  0.0300  0.2391  0.9332
19137THY    CP165726   4.274   0.635   3.520  0.0420  0.6109  0.0595
19137THY    HP165727   4.178   0.662   3.566 -0.5867 -0.4072 -0.4025
19137THY    CP265728   4.369   0.635   3.634  0.4991 -0.2174 -0.7573
19137THY    HP265729   4.385   0.734   3.678 -0.6265  1.5701 -1.3186
19137THY    HP365730   4.462   0.583   3.607  1.7811 -0.0110  1.3154
19137THY    HP465731   4.318   0.580   3.714  0.0128  1.9284  2.5298
19137THY    CP365732   4.243   0.490   3.476  0.9921 -0.4095  0.2025
19137THY    HP565733   4.155   0.482   3.410  0.0217  1.0384 -1.9830
19137THY    HP665734   4.220   0.435   3.568 -0.0419  0.1776  1.5596
19137THY    HP765735   4.323   0.443   3.418 -0.1270 -3.3579  1.6131
19137THY    CA365736   4.405   0.692   3.311  0.3216 -1.0463  0.0722
19137THY    HA365737   4.454   0.595   3.311  1.6433  1.9345  0.6304
19137THY    CA465738   4.421   0.771   3.199  0.0973 -0.0941 -0.9456
19137THY    HA465739   4.483   0.749   3.113  1.5489  0.2044  1.6082
19137THY    CA565740   4.372   0.902   3.192  0.8230 -0.3002 -0.2723
19137THY    CM165741   4.413   0.989   3.070  0.1717  0.4356  0.0149
19137THY    HM165742   4.385   0.929   2.982 -2.2765  0.0012  1.6357
19137THY    HM265743   4.518   1.019   3.078 -0.2496 -0.5756  1.9202
19137THY    HM365744   4.341   1.071   3.063 -0.0695 -1.5535 -0.3229
19137THY    CA665745   4.286   0.944   3.294  0.6096 -0.2097 -0.8794
19137THY    HA665746   4.250   1.046   3.290 -0.4067  0.3029 -1.2083
19138THY      O65747   6.379   0.536   4.938  0.0315 -0.3458  0.1330
19138THY     HO65748   6.361   0.585   4.856 -1.5994 -0.1706 -0.1224
19138THY    CA165749   6.350   0.633   5.028  0.2488  0.1417 -0.6528
19138THY    CA265750   6.428   0.671   5.132 -0.7089  0.0749 -0.5085
19138THY    CP165751   6.544   0.582   5.174 -0.4428 -0.0433  0.5845
19138THY    HP165752   6.522   0.475   5.164 -0.9460  0.6382  0.6190
19138THY    CP265753   6.567   0.594   5.327 -1.1198  0.4595 -0.3160
19138THY    HP265754   6.484   0.555   5.386  0.7744  1.1525 -3.7257
19138THY    HP365755   6.600   0.697   5.344 -0.4860  0.8159 -0.5726
19138THY    HP465756   6.656   0.540   5.363 -2.2448  3.2004 -0.4892
19138THY    CP365757   6.668   0.620   5.092  0.2474  0.3442 -0.1415
19138THY    HP565758   6.689   0.718   5.135 -3.6547  2.8372 -0.1823
19138THY    HP665759   6.647   0.619   4.985 -1.1205  0.5896 -1.0614
19138THY    HP765760   6.749   0.549   5.114 -0.3710 -0.6066 -1.1699
19138THY    CA365761   6.393   0.787   5.201  0.4872  0.6894  0.2730
19138THY    HA365762   6.459   0.826   5.278  1.0962  0.8493 -1.0361
19138THY    CA465763   6.278   0.854   5.166  0.2472  0.3890 -0.3404
19138THY    HA465764   6.244   0.933   5.232  0.2464  2.5406 -2.0569
19138THY    CA565765   6.195   0.815   5.058 -0.3540  0.2806  0.7746
19138THY    CM165766   6.080   0.894   5.013  0.3258  0.4720  0.1432
19138THY    HM165767   6.096   0.918   4.907 -1.6428  0.1435  0.1533
19138THY    HM265768   6.075   0.987   5.071  0.2959  1.7749 -0.6514
19138THY    HM365769   5.987   0.840   5.033  0.2309  3.9842  1.3915
19138THY    CA665770   6.241   0.712   4.987 -0.0836  0.0769  0.7256
19138THY    HA665771   6.184   0.679   4.900  2.5692 -0.8194 -1.8896
19139THY      O65772   1.511   1.485   6.814  0.1514  0.7211  0.1564
19139THY     HO65773   1.444   1.425   6.851  1.3555 -0.1364 -1.8018
19139THY    CA165774   1.603   1.508   6.917 -0.1432  0.6829  0.1901
19139THY    CA265775   1.705   1.418   6.947  0.6174 -0.2453 -0.0260
19139THY    CP165776   1.719   1.290   6.862  0.0612 -0.3470  0.8233
19139THY    HP165777   1.627   1.285   6.803  0.9668 -1.9870  2.3346
19139THY    CP265778   1.738   1.158   6.942 -0.4416 -0.1930  0.4701
19139THY    HP265779   1.823   1.179   7.008 -1.0339 -0.0281  2.6439
19139THY    HP365780   1.753   1.080   6.868  0.7328  1.3426 -0.8307
19139THY    HP465781   1.645   1.144   6.999  0.6730  1.7452  0.5238
19139THY    CP365782   1.839   1.309   6.766  0.0065  0.4841  0.4262
19139THY    HP565783   1.861   1.216   6.713  1.2867  0.7780  0.5341
19139THY    HP665784   1.929   1.338   6.822  0.0041  0.7485 -0.0580
19139THY    HP765785   1.801   1.392   6.706  2.9998 -0.0423  1.5332
19139THY    CA365786   1.796   1.456   7.049  0.7761  0.0820  0.4207
19139THY    HA365787   1.884   1.395   7.070 -0.5985 -2.0758 -2.6236
19139THY    CA465788   1.788   1.583   7.105  0.8953 -0.3652 -0.0344
19139THY    HA465789   1.865   1.623   7.170 -0.6332  1.3949  0.1651
19139THY    CA565790   1.678   1.666   7.073  0.0528 -1.1745  0.2667
19139THY    CM165791   1.667   1.797   7.147 -0.2182 -0.0859  0.2372
19139THY    HM165792   1.572   1.805   7.200 -0.4625 -0.6089  0.8603
19139THY    HM265793   1.666   1.880   7.074  0.4862 -1.7321 -1.1402
19139THY    HM365794   1.751   1.801   7.217 -0.9404  0.7929  0.2130
19139THY    CA665795   1.585   1.628   6.984  1.2264 -0.0165  0.6290
19139THY    HA665796   1.510   1.701   6.955  0.2198  0.6405 -0.1110
19140THY      O65797   5.913   7.265   5.821 -0.0321  0.1200  0.7274
19140THY     HO65798   5.834   7.210   5.812  0.4551 -0.9010  0.1567
19140THY    CA165799   5.940   7.298   5.946 -0.3358  0.1391 -0.7439
19140THY    CA265800   6.008   7.419   5.975  0.6597 -0.2528  0.4686
19140THY    CP165801   6.048   7.519   5.868  0.3048  0.8189  0.2599
19140THY    HP165802   5.999   7.499   5.772  2.7130  0.0438 -2.5655
19140THY    CP265803   6.194   7.492   5.825 -0.2451  0.0470 -0.1813
19140THY    HP265804   6.198   7.393   5.778  0.2439  1.1221 -0.6879
19140THY    HP365805   6.252   7.467   5.914 -3.1401  2.2620  0.4834
19140THY    HP465806   6.238   7.568   5.759 -1.1940 -2.0171 -1.3382
19140THY    CP365807   6.024   7.660   5.908  0.1142 -0.0666 -0.0021
19140THY    HP565808   6.028   7.722   5.818  1.2588 -0.2486 -0.3185
19140THY    HP665809   6.106   7.692   5.974  0.4517 -0.0926 -0.7893
19140THY    HP765810   5.929   7.672   5.962  0.6188  0.5855  1.2996
19140THY    CA365811   6.043   7.449   6.109  0.0765 -0.6313  0.2660
19140THY    HA365812   6.101   7.537   6.136  1.2228 -3.1410  0.3631
19140THY    CA465813   6.011   7.362   6.212 -0.7535 -0.2073  0.0754
19140THY    HA465814   6.045   7.387   6.312  2.6300 -1.0874 -0.5322
19140THY    CA565815   5.931   7.247   6.181  0.0364 -0.4251 -0.4373
19140THY    CM165816   5.891   7.152   6.297  0.0245  0.3601 -0.2622
19140THY    HM165817   5.846   7.212   6.377 -1.7415  1.1768 -2.5445
19140THY    HM265818   5.981   7.103   6.338 -0.0867 -0.3154 -1.0440
19140THY    HM365819   5.813   7.079   6.275 -1.7339  2.2764  0.9183
19140THY    CA665820   5.897   7.214   6.053  0.3834  0.4560 -0.2634
19140THY    HA665821   5.835   7.129   6.028 -2.1924 -2.4445  2.2351
19141THY      O65822   3.408   7.744   5.767  0.4241  0.0649  0.5921
19141THY     HO65823   3.361   7.665   5.735  2.5809  1.1094 -1.2502
19141THY    CA165824   3.314   7.806   5.841  0.6691 -0.2890 -0.1712
19141THY    CA265825   3.338   7.933   5.906 -0.6313  0.3419 -0.8744
19141THY    CP165826   3.471   8.001   5.903 -0.2825 -0.1192 -0.4725
19141THY    HP165827   3.555   7.932   5.893  1.0437 -0.4373  1.1334
19141THY    CP265828   3.503   8.082   6.029  0.2868  0.5443 -0.2628
19141THY    HP265829   3.472   8.024   6.116 -1.5651 -1.1948 -2.0422
19141THY    HP365830   3.444   8.174   6.030  0.8134 -1.2239  0.1508
19141THY    HP465831   3.609   8.110   6.035  1.4580  0.5668 -4.1457
19141THY    CP365832   3.494   8.098   5.789  0.1677 -0.2136 -0.3963
19141THY    HP565833   3.592   8.144   5.771 -1.2338 -1.4666  2.3359
19141THY    HP665834   3.416   8.172   5.768 -0.6793 -0.5150 -1.3597
19141THY    HP765835   3.489   8.036   5.698 -2.5055 -1.7084  1.7626
19141THY    CA365836   3.231   7.994   5.976  0.2794  0.6033 -0.6488
19141THY    HA365837   3.243   8.092   6.020 -0.0170  0.3723 -0.5040
19141THY    CA465838   3.111   7.921   5.983 -1.1798 -0.1045  0.2903
19141THY    HA465839   3.030   7.954   6.048 -1.7197  0.1368 -1.3982
19141THY    CA565840   3.088   7.802   5.918  0.5293  0.1634 -0.5864
19141THY    CM165841   2.952   7.740   5.924  0.5161  0.5291 -0.3259
19141THY    HM165842   2.912   7.749   6.026 -0.7140  0.0485 -0.1459
19141THY    HM265843   2.933   7.636   5.895 -2.7692  0.2429  0.2370
19141THY    HM365844   2.885   7.793   5.855 -1.5968  0.0144 -3.4323
19141THY    CA665845   3.187   7.744   5.851 -0.4571  0.0419 -0.4131
19141THY    HA665846   3.168   7.656   5.790  0.2278 -2.8896  1.3363
19142THY      O65847   8.247   0.958   2.189  0.1298 -0.1196  0.1413
19142THY     HO65848   8.229   0.863   2.179  0.7955 -1.4814  0.1294
19142THY    CA165849   8.274   1.010   2.311 -0.0808  0.2871  0.1002
19142THY    CA265850   8.328   1.141   2.329 -0.3507  0.3898 -0.7900
19142THY    CP165851   8.355   1.234   2.206 -0.7735  0.2853  0.5108
19142THY    HP165852   8.293   1.202   2.122 -1.6355  0.6319  1.2355
19142THY    CP265853   8.501   1.221   2.156 -0.6932 -0.6318  0.1232
19142THY    HP265854   8.573   1.238   2.237  0.6499 -1.5691 -0.8564
19142THY    HP365855   8.523   1.291   2.075  2.3148 -0.6139 -0.6584
19142THY    HP465856   8.520   1.122   2.112 -1.0855 -1.7623  0.5414
19142THY    CP365857   8.329   1.386   2.219  0.9052 -0.4574 -0.1274
19142THY    HP565858   8.229   1.401   2.263 -0.4211 -2.8219 -1.4391
19142THY    HP665859   8.314   1.438   2.124 -1.3078  0.5586  1.2772
19142THY    HP765860   8.406   1.434   2.280 -1.2321  1.9723  0.4565
19142THY    CA365861   8.350   1.183   2.458  0.4442  0.4099  0.1461
19142THY    HA365862   8.375   1.289   2.470  2.4369 -2.4987  0.1237
19142THY    CA465863   8.322   1.100   2.572 -0.5142  0.1331 -0.1746
19142THY    HA465864   8.338   1.138   2.672 -2.5709 -0.1281  1.6347
19142THY    CA565865   8.269   0.965   2.548 -0.6269  0.5599 -1.0387
19142THY    CM165866   8.248   0.874   2.674  0.1896 -0.4102  0.3150
19142THY    HM165867   8.153   0.819   2.679 -0.4243 -0.3523  1.3655
19142THY    HM265868   8.250   0.928   2.769  0.7530 -0.8304  1.0482
19142THY    HM365869   8.324   0.795   2.672  0.4079  0.3021  0.5044
19142THY    CA665870   8.239   0.920   2.417 -1.2279 -0.5059  0.0440
19142THY    HA665871   8.205   0.818   2.403  0.1414  0.9126 -0.6522
19143THY      O65872   5.558   0.566   5.114  0.4102  0.2950 -0.1894
19143THY     HO65873   5.555   0.490   5.175 -0.7863 -1.6046 -1.7558
19143THY    CA165874   5.672   0.552   5.041 -0.4616 -0.3327 -0.4343
19143THY    CA265875   5.678   0.582   4.907 -0.1428 -0.0974 -0.6792
19143THY    CP165876   5.555   0.647   4.838 -0.0077 -0.2710 -0.1676
19143THY    HP165877   5.459   0.614   4.879  0.0671 -0.6251 -0.8460
19143THY    CP265878   5.545   0.621   4.689  0.1157 -0.6393 -0.2249
19143THY    HP265879   5.443   0.622   4.649 -0.4193  0.5969 -1.3784
19143THY    HP365880   5.570   0.515   4.673 -1.7660 -1.3278 -0.6001
19143THY    HP465881   5.618   0.682   4.635  1.0161  0.6488 -0.1354
19143THY    CP365882   5.560   0.800   4.870  0.0406  0.1937 -0.5355
19143THY    HP565883   5.547   0.808   4.979 -0.8993  0.3515 -3.0555
19143THY    HP665884   5.476   0.841   4.812  0.3776  0.9989  1.4076
19143THY    HP765885   5.646   0.857   4.835 -0.6925  0.3262  0.6874
19143THY    CA365886   5.804   0.583   4.844  0.4664 -0.2152  0.8767
19143THY    HA365887   5.813   0.609   4.739 -3.4933 -1.2687 -1.2372
19143THY    CA465888   5.922   0.550   4.920  0.0429 -0.0933  0.1275
19143THY    HA465889   6.018   0.548   4.871 -0.0492 -0.2830  0.3881
19143THY    CA565890   5.906   0.497   5.051 -0.2396  0.4027  0.0099
19143THY    CM165891   6.018   0.438   5.129  0.7524 -0.9122  0.0173
19143THY    HM165892   6.062   0.354   5.075  0.3097 -0.3199 -0.6062
19143THY    HM265893   5.984   0.412   5.231 -2.2077 -1.0315  2.7633
19143THY    HM365894   6.096   0.514   5.135  0.9521 -4.4609  0.2266
19143THY    CA665895   5.782   0.506   5.110  0.1056 -0.6276  0.1556
19143THY    HA665896   5.773   0.478   5.214  1.4870  0.3085  2.8177
19144THY      O65897   2.310   7.859   5.733  0.1843  0.2027  0.0031
19144THY     HO65898   2.247   7.786   5.746  0.4129  0.5079 -0.1420
19144THY    CA165899   2.371   7.820   5.620 -0.8689  0.3041 -0.6108
19144THY    CA265900   2.504   7.870   5.580  0.9436 -0.4247  0.5267
19144THY    CP165901   2.583   7.971   5.661 -0.0062 -0.2199 -0.7222
19144THY    HP165902   2.514   8.054   5.681  1.7377 -0.5749  0.8773
19144THY    CP265903   2.700   8.040   5.582  0.5773 -0.3863 -0.5974
19144THY    HP265904   2.731   8.120   5.650  1.2820 -0.6536 -0.6432
19144THY    HP365905   2.659   8.077   5.488 -0.8866 -0.0752 -1.3239
19144THY    HP465906   2.785   7.976   5.559  1.2841 -1.6252  0.7340
19144THY    CP365907   2.640   7.912   5.787 -0.2847 -0.3209 -0.0051
19144THY    HP565908   2.687   7.817   5.759 -0.5605  2.1570 -0.9412
19144THY    HP665909   2.563   7.905   5.865  0.8849  0.8158 -0.9257
19144THY    HP765910   2.708   7.980   5.839 -0.4884 -0.1660  0.0808
19144THY    CA365911   2.562   7.806   5.465 -0.8173 -0.1144  0.8086
19144THY    HA365912   2.661   7.838   5.435 -0.7933  0.1004  0.9397
19144THY    CA465913   2.491   7.711   5.385 -0.1215 -0.7414 -0.1736
19144THY    HA465914   2.529   7.677   5.289 -0.6269 -1.9075  2.2652
19144THY    CA565915   2.365   7.669   5.429  1.0478  0.0473 -0.1618
19144THY    CM165916   2.303   7.557   5.352 -0.4293 -0.4705  0.0997
19144THY    HM165917   2.325   7.468   5.413 -1.1528 -0.8392 -0.3386
19144THY    HM265918   2.341   7.549   5.250 -1.0507 -0.5562 -3.1067
19144THY    HM365919   2.195   7.571   5.366 -0.1760  1.7684  0.2376
19144THY    CA665920   2.308   7.726   5.544 -0.4669  0.3572 -0.1458
19144THY    HA665921   2.207   7.696   5.572 -1.3723  0.1707  2.4901
19145THY      O65922   4.085   7.546   6.163 -0.3749  1.0964  0.0904
19145THY     HO65923   4.161   7.491   6.188 -1.1151  0.4497 -1.2612
19145THY    CA165924   4.086   7.663   6.230  0.3289  0.2218  0.2550
19145THY    CA265925   4.006   7.777   6.190  0.8070 -0.2737  0.4017
19145THY    CP165926   3.939   7.770   6.048 -0.0990  0.1335  0.3131
19145THY    HP165927   3.949   7.674   5.996 -2.1638  2.4573 -1.2766
19145THY    CP265928   4.000   7.874   5.957 -0.1768 -0.0960  0.2350
19145THY    HP265929   4.092   7.840   5.908 -0.4149 -0.8520  0.6805
19145THY    HP365930   4.030   7.969   6.004  2.3924 -1.0509 -0.0126
19145THY    HP465931   3.938   7.888   5.868  0.9895 -1.3078 -1.8236
19145THY    CP365932   3.796   7.794   6.055  0.1619 -0.2695  0.1423
19145THY    HP565933   3.774   7.898   6.081  0.5933  0.7492 -0.0133
19145THY    HP665934   3.745   7.730   6.127 -0.3377 -2.5440 -2.1879
19145THY    HP765935   3.759   7.765   5.956  1.7489 -0.9833  0.4418
19145THY    CA365936   3.997   7.883   6.286 -0.6820 -0.1598  0.5194
19145THY    HA365937   3.944   7.973   6.256 -1.8754 -2.0849 -0.7574
19145THY    CA465938   4.074   7.882   6.406 -0.4757 -0.6198  0.0995
19145THY    HA465939   4.064   7.962   6.479  0.2225  0.9042 -1.1404
19145THY    CA565940   4.149   7.773   6.440 -0.1910  0.5020 -0.1097
19145THY    CM165941   4.202   7.777   6.579 -0.4374  0.3596 -0.1582
19145THY    HM165942   4.278   7.701   6.602 -1.1343 -0.4850 -1.1377
19145THY    HM265943   4.121   7.760   6.650 -1.0648 -0.1923  0.4812
19145THY    HM365944   4.238   7.877   6.606 -2.6614  0.3659  0.6970
19145THY    CA665945   4.162   7.666   6.351 -0.1387 -0.1913  0.9081
19145THY    HA665946   4.218   7.577   6.379  1.1416  3.0029  2.5708
19146THY      O65947   8.765   1.004   7.371  0.6303  0.2605  0.4993
19146THY     HO65948   8.761   0.907   7.379 -0.2400  1.7813  0.6329
19146THY    CA165949   8.790   1.029   7.497  0.4107 -0.1032 -0.3216
19146THY    CA265950   8.853   1.150   7.535  0.1198 -0.0307  0.4836
19146THY    CP165951   8.902   1.244   7.428 -0.2487 -0.1623 -0.5009
19146THY    HP165952   8.894   1.210   7.324  1.9808 -1.6119  2.8378
19146THY    CP265953   9.048   1.297   7.439  0.1377  0.2242  0.1026
19146THY    HP265954   9.115   1.216   7.472  1.3504 -1.4215  0.3610
19146THY    HP365955   9.054   1.377   7.513  1.3036  0.2803 -0.0140
19146THY    HP465956   9.081   1.335   7.341  2.5447  0.2417 -1.6935
19146THY    CP365957   8.806   1.368   7.414 -0.4247  0.6344  0.0284
19146THY    HP565958   8.813   1.443   7.493  1.3274  0.0455  0.5198
19146THY    HP665959   8.705   1.325   7.417  0.3965  3.3894 -1.9633
19146THY    HP765960   8.821   1.412   7.315 -0.3771 -0.2680 -1.8772
19146THY    CA365961   8.880   1.170   7.665 -0.2344 -0.2714  0.4200
19146THY    HA365962   8.911   1.267   7.704 -1.6007  1.9887  0.0250
19146THY    CA465963   8.854   1.066   7.757 -0.1502  1.1935  0.1416
19146THY    HA465964   8.876   1.077   7.863  0.5044  1.0211  0.5776
19146THY    CA565965   8.797   0.941   7.721  0.6564  0.0528 -0.3070
19146THY    CM165966   8.780   0.829   7.815  0.2252  0.3983 -0.4187
19146THY    HM165967   8.675   0.820   7.846 -0.1181 -0.0658  1.6391
19146THY    HM265968   8.836   0.844   7.908 -0.0738  0.4898  0.1528
19146THY    HM365969   8.816   0.733   7.776  1.7795  2.8623 -0.9329
19146THY    CA665970   8.767   0.926   7.587  0.1720 -0.6589  0.3524
19146THY    HA665971   8.712   0.835   7.566  0.0063 -2.3429  0.8144
19147THY      O65972   1.053   2.427   2.640  0.4032  0.5134 -0.1945
19147THY     HO65973   0.999   2.364   2.590 -0.8906  0.3338  1.0001
19147THY    CA165974   0.959   2.511   2.689 -0.5731  0.2934  0.2636
19147THY    CA265975   0.971   2.539   2.829  0.2484  0.1695  0.7109
19147THY    CP165976   1.071   2.462   2.915  0.3328  0.1914 -0.2409
19147THY    HP165977   1.158   2.428   2.857  0.4067  0.5235 -0.6363
19147THY    CP265978   1.014   2.346   2.983 -0.1013 -0.3237 -0.4796
19147THY    HP265979   0.954   2.283   2.916  1.6219 -1.0002 -1.4679
19147THY    HP365980   0.960   2.384   3.071 -0.0787 -0.6669  0.3592
19147THY    HP465981   1.093   2.277   3.016 -0.9720 -2.0072 -2.3973
19147THY    CP365982   1.130   2.562   3.024 -0.6520 -0.0248 -0.0913
19147THY    HP565983   1.197   2.516   3.098  0.3875  0.1961  1.7022
19147THY    HP665984   1.054   2.607   3.089 -2.5086  0.5414 -3.6410
19147THY    HP765985   1.194   2.637   2.978  2.0119  0.6998 -1.7710
19147THY    CA365986   0.875   2.629   2.879  0.1963 -0.3202  0.4242
19147THY    HA365987   0.872   2.652   2.985 -2.2461  0.2055 -1.8943
19147THY    CA465988   0.776   2.689   2.797  0.1492  0.0577  0.5015
19147THY    HA465989   0.690   2.739   2.840 -1.5230 -0.3162 -1.8766
19147THY    CA565990   0.777   2.664   2.661  0.5547  0.6602  0.3193
19147THY    CM165991   0.679   2.726   2.570 -0.3949  1.0776  0.5475
19147THY    HM165992   0.705   2.723   2.464 -1.5363  0.8064 -0.8515
19147THY    HM265993   0.655   2.828   2.602 -0.3292  1.4305  0.4561
19147THY    HM365994   0.584   2.672   2.581 -0.5016 -0.9023  0.2761
19147THY    CA665995   0.870   2.574   2.610 -0.5560 -0.3239 -0.9822
19147THY    HA665996   0.865   2.562   2.502 -0.2348 -0.4839  0.1708
19148THY      O65997   2.511   5.992   5.841 -0.0510 -0.4185  0.4159
19148THY     HO65998   2.465   5.995   5.755 -0.3425 -0.2363  1.5190
19148THY    CA165999   2.441   6.057   5.934  0.0142 -0.3904 -0.1705
19148THY    CA266000   2.473   6.050   6.074 -0.0065  0.0396 -0.5859
19148THY    CP166001   2.587   5.957   6.118 -0.5812  0.2261 -0.4690
19148THY    HP166002   2.659   5.952   6.036 -0.9902 -0.1026 -1.1098
19148THY    CP266003   2.543   5.814   6.147  0.2336 -0.5582  0.4121
19148THY    HP266004   2.451   5.820   6.205  1.0420  0.8991 -0.7338
19148THY    HP366005   2.626   5.768   6.201 -0.5184 -0.4049 -0.8111
19148THY    HP466006   2.517   5.756   6.058 -0.9742 -0.0955  0.2080
19148THY    CP366007   2.656   6.015   6.238 -0.5639  0.5383 -0.2004
19148THY    HP566008   2.716   5.937   6.286  0.1491  1.7335  1.0361
19148THY    HP666009   2.596   6.042   6.326 -1.5321  0.2288 -1.3073
19148THY    HP766010   2.743   6.076   6.207  0.0537 -2.0707 -2.2230
19148THY    CA366011   2.388   6.123   6.164 -0.7114  0.1360  0.2894
19148THY    HA366012   2.404   6.106   6.270 -0.1971 -0.2598 -1.9654
19148THY    CA466013   2.291   6.208   6.113  0.5169 -0.2026  0.2814
19148THY    HA466014   2.239   6.268   6.187  0.2882  0.1735 -0.3779
19148THY    CA566015   2.282   6.227   5.982  0.4334 -0.0370 -0.6793
19148THY    CM166016   2.182   6.337   5.937  0.0192  0.7220 -0.3843
19148THY    HM166017   2.082   6.292   5.929  0.4381 -0.4774 -1.1403
19148THY    HM266018   2.208   6.378   5.839 -1.2591  0.2358 -0.6808
19148THY    HM366019   2.176   6.419   6.009 -2.5074  0.3871 -0.1744
19148THY    CA666020   2.344   6.149   5.890 -0.2212  0.3949 -0.4695
19148THY    HA666021   2.335   6.182   5.787  0.0327  0.6554  0.4376
19149THY      O66022   3.219   6.835   2.435 -0.8109 -0.0077 -0.4889
19149THY     HO66023   3.165   6.910   2.407 -2.7800  0.3943 -1.6959
19149THY    CA166024   3.282   6.796   2.317  0.1580 -0.3027 -0.2223
19149THY    CA266025   3.382   6.697   2.321 -0.5036 -0.4983 -0.5427
19149THY    CP166026   3.404   6.604   2.440 -0.4692 -0.5450 -0.9202
19149THY    HP166027   3.355   6.648   2.528 -0.2893 -1.1022  0.4439
19149THY    CP266028   3.544   6.580   2.483 -0.7075  0.2046 -0.6707
19149THY    HP266029   3.609   6.668   2.493 -2.3000  1.2033  0.4375
19149THY    HP366030   3.594   6.524   2.402 -2.3433 -2.6782  1.7725
19149THY    HP466031   3.541   6.524   2.577  1.0464  0.1328 -0.9534
19149THY    CP366032   3.327   6.477   2.407 -0.1172  0.4174  0.0703
19149THY    HP566033   3.226   6.493   2.368  0.4759 -1.2708 -0.0783
19149THY    HP666034   3.322   6.428   2.505 -2.7713  1.6825  2.5663
19149THY    HP766035   3.397   6.430   2.336  0.1719 -1.0046  2.5165
19149THY    CA366036   3.450   6.677   2.201 -0.4847 -0.3647  0.9790
19149THY    HA366037   3.525   6.601   2.188 -1.5484  0.0366 -0.1730
19149THY    CA466038   3.410   6.750   2.092 -0.3765  0.2690  0.0827
19149THY    HA466039   3.456   6.730   1.996  1.1292  0.6438  1.5540
19149THY    CA566040   3.325   6.860   2.097  0.5817  0.3759  0.7945
19149THY    CM166041   3.300   6.942   1.968  0.2333 -0.1716 -0.4787
19149THY    HM166042   3.386   7.009   1.957 -0.9039 -0.7539  0.9543
19149THY    HM266043   3.207   7.000   1.977  0.0769  0.7178 -0.8564
19149THY    HM366044   3.297   6.882   1.876  1.2952 -0.2139 -0.4850
19149THY    CA666045   3.260   6.880   2.214 -0.2219 -0.8115 -0.2819
19149THY    HA666046   3.180   6.953   2.224  0.0570 -0.4908 -0.0123
19150THY      O66047   2.524   1.360   5.238 -0.3000  0.4948  0.0031
19150THY     HO66048   2.570   1.380   5.322  0.7576  0.2739 -1.3628
19150THY    CA166049   2.488   1.225   5.245  0.2552 -0.3697 -0.3142
19150THY    CA266050   2.521   1.141   5.137  0.6462  0.3710  0.2550
19150THY    CP166051   2.589   1.195   5.017  0.5856  0.8077 -0.0222
19150THY    HP166052   2.631   1.294   5.038  1.8228 -2.5557  0.3077
19150THY    CP266053   2.502   1.211   4.893 -0.5530  0.7333  0.4479
19150THY    HP266054   2.427   1.291   4.903 -0.6900  0.4142  0.3622
19150THY    HP366055   2.447   1.121   4.862  0.1480 -0.3992  0.3916
19150THY    HP466056   2.558   1.231   4.801 -1.2165  0.6604  2.1718
19150THY    CP366057   2.708   1.118   4.975  0.4390  0.0372  0.6280
19150THY    HP566058   2.792   1.180   4.943 -0.1211 -1.0694  0.8480
19150THY    HP666059   2.676   1.041   4.904 -1.6111  1.6875 -0.1511
19150THY    HP766060   2.736   1.067   5.068 -2.8287 -0.2408 -2.0810
19150THY    CA366061   2.475   1.005   5.137  0.2033 -0.3210  0.5654
19150THY    HA366062   2.482   0.938   5.052 -2.0624 -0.2278  0.1402
19150THY    CA466063   2.415   0.955   5.253 -0.4046  0.3208 -0.0239
19150THY    HA466064   2.383   0.852   5.269 -2.4553 -0.3312  0.4640
19150THY    CA566065   2.384   1.044   5.367 -0.3665  0.1751  0.2200
19150THY    CM166066   2.332   0.982   5.494 -0.4559  0.1603 -0.3406
19150THY    HM166067   2.290   0.882   5.485 -0.4291  1.6531 -0.5041
19150THY    HM266068   2.253   1.044   5.538 -1.3393 -3.1274  1.1401
19150THY    HM366069   2.414   0.950   5.560 -0.9440  0.4957 -0.9119
19150THY    CA666070   2.428   1.178   5.359 -0.3377 -0.4148  0.3269
19150THY    HA666071   2.410   1.243   5.444 -0.4617  0.5448 -0.9340
19151THY      O66072   1.906   6.463   3.060  0.0240  0.3338 -0.6411
19151THY     HO66073   1.893   6.445   2.965  3.0100 -0.8379  2.3668
19151THY    CA166074   1.987   6.361   3.103 -0.3432  0.3457 -0.7237
19151THY    CA266075   2.052   6.360   3.227  0.3758  0.4716  0.1797
19151THY    CP166076   2.017   6.464   3.339 -0.3591 -0.4402  0.2959
19151THY    HP166077   1.916   6.507   3.338  0.1624 -1.2139  1.5645
19151THY    CP266078   2.106   6.577   3.324  0.1531  0.4787 -0.7164
19151THY    HP266079   2.066   6.660   3.383  1.1712  1.3970 -0.8492
19151THY    HP366080   2.121   6.607   3.219  0.5311  0.5541 -0.6337
19151THY    HP466081   2.208   6.556   3.359  0.4649  0.9252  1.3478
19151THY    CP366082   2.034   6.420   3.485  0.1348  0.4280  0.0968
19151THY    HP566083   2.140   6.405   3.508  0.3472 -0.6559 -0.1721
19151THY    HP666084   1.975   6.331   3.509  0.3061  2.2543  0.4411
19151THY    HP766085   1.998   6.500   3.550  0.4145  0.7748 -0.0547
19151THY    CA366086   2.150   6.257   3.251  0.5341  0.1182  0.4692
19151THY    HA366087   2.212   6.247   3.340  1.4709 -0.3103  2.1679
19151THY    CA466088   2.163   6.159   3.156 -0.2588  0.5398  0.0991
19151THY    HA466089   2.214   6.064   3.164 -1.0306  0.5048 -0.3225
19151THY    CA566090   2.103   6.162   3.037 -0.2070 -0.0292 -0.1817
19151THY    CM166091   2.138   6.060   2.931  0.3101  0.0129  0.2232
19151THY    HM166092   2.082   5.966   2.939 -2.8128 -3.6347  1.5062
19151THY    HM266093   2.244   6.031   2.938  0.5970  0.0360  1.2584
19151THY    HM366094   2.125   6.089   2.826  0.0000 -0.3764 -1.2468
19151THY    CA666095   2.027   6.268   3.003  0.3170  0.4125 -0.4853
19151THY    HA666096   1.987   6.276   2.902  0.4427  0.4446  0.7803
19152THY      O66097   4.015   1.625   5.521  0.5154 -0.0887 -0.1545
19152THY     HO66098   3.977   1.705   5.480 -1.3435 -0.6261 -1.2548
19152THY    CA166099   4.086   1.561   5.425  0.0279  0.3892 -0.5205
19152THY    CA266100   4.209   1.500   5.452 -0.1237  0.2389 -0.5451
19152THY    CP166101   4.262   1.493   5.596 -1.0840  0.2422 -0.1104
19152THY    HP166102   4.175   1.491   5.663 -0.9644  0.3981 -0.2228
19152THY    CP266103   4.361   1.612   5.629 -0.1120  0.0132 -0.3374
19152THY    HP266104   4.459   1.596   5.583  0.2616  1.1870 -1.6164
19152THY    HP366105   4.382   1.621   5.736  0.7636  0.1132 -2.8447
19152THY    HP466106   4.311   1.702   5.590 -1.5251  2.1043 -0.1504
19152THY    CP366107   4.333   1.370   5.640  0.0206 -0.4285  0.6359
19152THY    HP566108   4.434   1.362   5.599  0.0669 -0.0926 -0.7273
19152THY    HP666109   4.285   1.279   5.601  1.5425  0.1640 -0.4611
19152THY    HP766110   4.332   1.362   5.749  0.9239 -0.3575  1.3917
19152THY    CA366111   4.284   1.448   5.344  0.6043  0.0082  0.2891
19152THY    HA366112   4.385   1.412   5.366  0.2359 -0.2576 -0.9570
19152THY    CA466113   4.233   1.445   5.214 -0.1908 -0.1436 -0.6339
19152THY    HA466114   4.298   1.415   5.132  0.8789  1.3922 -2.8167
19152THY    CA566115   4.113   1.508   5.190  0.4369  0.3650  0.0234
19152THY    CM166116   4.066   1.528   5.056  0.6359  0.7128  0.9034
19152THY    HM166117   4.031   1.436   5.007  0.4360 -0.6476  1.6703
19152THY    HM266118   4.139   1.586   4.999  0.2519 -0.3416  0.3748
19152THY    HM366119   3.978   1.593   5.043 -0.4156  1.3882 -0.3256
19152THY    CA666120   4.039   1.572   5.295 -0.2455  0.0201  0.4006
19152THY    HA666121   3.944   1.622   5.278  0.4077  0.1343  1.6948
19153THY      O66122   1.188   3.230   4.055 -0.6601  0.2227 -0.3404
19153THY     HO66123   1.212   3.321   4.081 -4.2621  4.4185 -0.2419
19153THY    CA166124   1.054   3.238   4.083  0.0707  0.1022  0.0577
19153THY    CA266125   0.998   3.143   4.170 -0.1974  0.1371  0.2746
19153THY    CP166126   1.079   3.026   4.232 -0.8006 -0.0748 -0.0901
19153THY    HP166127   1.181   3.038   4.194 -0.8253  0.2418  1.2381
19153THY    CP266128   1.033   2.889   4.195  0.2514  0.0180  0.6387
19153THY    HP266129   1.040   2.872   4.086 -0.9943  0.2765 -2.0810
19153THY    HP366130   0.926   2.885   4.219  0.2362  0.0369  1.0760
19153THY    HP466131   1.091   2.817   4.253 -0.1766  0.3658  0.5696
19153THY    CP366132   1.069   3.034   4.393 -0.5982  0.3317  0.1272
19153THY    HP566133   1.112   3.131   4.421  1.1075 -1.0097 -0.2150
19153THY    HP666134   1.136   2.967   4.448  1.9347 -0.2626  2.0106
19153THY    HP766135   0.963   3.025   4.420 -0.7821 -0.6309 -0.6624
19153THY    CA366136   0.860   3.151   4.202  0.3001  0.2664  0.6347
19153THY    HA366137   0.815   3.072   4.262 -1.9653 -1.4492  0.5051
19153THY    CA466138   0.781   3.256   4.150 -0.0991 -0.5656 -0.3058
19153THY    HA466139   0.673   3.257   4.163 -0.0925 -0.4265 -0.8962
19153THY    CA566140   0.843   3.357   4.070  0.0277  0.4715  0.1927
19153THY    CM166141   0.757   3.476   4.022 -0.3920 -0.7092  0.1022
19153THY    HM166142   0.822   3.565   4.022 -0.0508  0.5200 -0.1346
19153THY    HM266143   0.687   3.509   4.099 -0.0978  0.0578 -0.9889
19153THY    HM366144   0.714   3.442   3.927 -0.8383 -0.1872 -0.8334
19153THY    CA666145   0.975   3.337   4.031  0.0605  0.0825  0.2461
19153THY    HA666146   1.033   3.399   3.963 -0.5052 -1.0246 -0.4150
19154THY      O66147   0.752   4.559   6.131  0.2572 -0.1777  0.2897
19154THY     HO66148   0.809   4.616   6.077  2.8645  1.0345 -0.9684
19154THY    CA166149   0.636   4.528   6.067  0.3407  0.2996  0.4776
19154THY    CA266150   0.546   4.431   6.126 -0.6837  0.1994 -0.0261
19154THY    CP166151   0.574   4.361   6.262  0.6370  1.0944 -0.4700
19154THY    HP166152   0.679   4.379   6.287  0.6459 -0.1335  1.5134
19154THY    CP266153   0.566   4.211   6.246  0.4299 -0.1866 -0.4658
19154THY    HP266154   0.653   4.173   6.190  0.7245  1.0669 -1.6860
19154THY    HP366155   0.474   4.181   6.194  1.3145 -0.3169 -3.2463
19154THY    HP466156   0.570   4.169   6.347 -0.5681 -0.5617 -1.5028
19154THY    CP366157   0.485   4.415   6.375  0.7710 -0.0812 -0.3574
19154THY    HP566158   0.535   4.373   6.463  0.9519  0.4855  0.9991
19154THY    HP666159   0.379   4.385   6.371  0.5907 -0.1978  0.2953
19154THY    HP766160   0.495   4.524   6.375  0.2742 -1.7395 -0.2900
19154THY    CA366161   0.411   4.420   6.070  0.2847 -0.7508 -0.2712
19154THY    HA366162   0.340   4.375   6.139 -0.6259 -0.4636  1.5191
19154THY    CA466163   0.369   4.499   5.953 -0.3031 -0.3659  0.1841
19154THY    HA466164   0.265   4.489   5.923 -0.5936  0.4244  0.7039
19154THY    CA566165   0.467   4.585   5.896  0.3362 -0.4053  0.0301
19154THY    CM166166   0.425   4.661   5.769  0.1439 -0.4125  0.6996
19154THY    HM166167   0.340   4.727   5.789  0.5355  0.7334  0.8792
19154THY    HM266168   0.401   4.587   5.692 -0.2300  0.9293 -0.6109
19154THY    HM366169   0.507   4.717   5.721  2.2754 -0.1949 -2.0432
19154THY    CA666170   0.597   4.602   5.957  0.3083 -0.4393 -0.8131
19154THY    HA666171   0.662   4.674   5.907  0.2702 -1.2863 -1.3499
19155THY      O66172   1.593   3.161   5.384  0.4833 -0.0094 -0.4826
19155THY     HO66173   1.605   3.201   5.296  0.0196  0.4259  0.6537
19155THY    CA166174   1.710   3.171   5.455  0.0956 -0.0599 -0.3084
19155THY    CA266175   1.723   3.112   5.583  0.0558  0.4319  0.5398
19155THY    CP166176   1.614   3.033   5.654 -0.3794 -0.0668 -0.6781
19155THY    HP166177   1.523   3.035   5.592 -1.5928  1.6602  0.7076
19155THY    CP266178   1.567   3.119   5.773  0.6357  0.5024 -0.4096
19155THY    HP266179   1.458   3.105   5.772  1.0108 -0.2236 -4.5223
19155THY    HP366180   1.598   3.224   5.770  1.0999 -0.4854 -0.5579
19155THY    HP466181   1.596   3.089   5.874 -0.5337  1.7833  2.4349
19155THY    CP366182   1.658   2.890   5.695  0.7579 -0.0733 -0.6863
19155THY    HP566183   1.566   2.841   5.729 -1.4382  0.2365  3.2368
19155THY    HP666184   1.722   2.903   5.782  1.1314 -0.2148 -1.5644
19155THY    HP766185   1.698   2.842   5.605  0.3116 -0.4812 -0.3076
19155THY    CA366186   1.846   3.137   5.650 -0.3044 -0.4443 -1.0119
19155THY    HA366187   1.866   3.101   5.750  0.5671 -0.1554  0.2262
19155THY    CA466188   1.949   3.212   5.592  0.4024  0.7992  0.1348
19155THY    HA466189   2.032   3.240   5.655  1.0682 -0.2909  0.7000
19155THY    CA566190   1.930   3.272   5.466 -0.2171  0.3430 -0.1029
19155THY    CM166191   2.028   3.364   5.408 -0.8115  0.1263  0.1978
19155THY    HM166192   2.108   3.364   5.483 -1.8332  1.2481 -0.0344
19155THY    HM266193   1.992   3.466   5.395 -0.7159 -2.5161 -0.0358
19155THY    HM366194   2.071   3.332   5.312 -0.7654  0.1719  0.1236
19155THY    CA666195   1.809   3.252   5.399  0.2070 -0.1068 -0.6942
19155THY    HA666196   1.796   3.298   5.302 -0.3435 -0.6632 -1.9711
19156THY      O66197   4.303   5.512   4.868 -0.4134 -0.2380  0.1749
19156THY     HO66198   4.396   5.538   4.882 -0.6126  1.5677  0.0552
19156THY    CA166199   4.282   5.461   4.744 -0.4715 -0.1665  0.5051
19156THY    CA266200   4.182   5.507   4.663  0.4685  0.0325 -0.0410
19156THY    CP166201   4.071   5.603   4.725  0.2765 -0.4154  0.2936
19156THY    HP166202   4.117   5.651   4.812  0.7019 -0.1291 -0.6031
19156THY    CP266203   3.939   5.529   4.767 -0.4641 -0.2617 -0.2661
19156THY    HP266204   3.904   5.468   4.683  0.3068  1.4090 -3.1625
19156THY    HP366205   3.863   5.600   4.802  0.6488 -0.2739  0.9599
19156THY    HP466206   3.961   5.468   4.855  2.8736 -0.9728 -0.2590
19156THY    CP366207   4.023   5.712   4.626 -0.0945  0.0111  0.0109
19156THY    HP566208   3.961   5.796   4.658  1.9328  0.7874  1.2825
19156THY    HP666209   3.965   5.668   4.544 -0.1223  0.2579 -0.4120
19156THY    HP766210   4.112   5.758   4.582  0.4382  2.0613  1.0177
19156THY    CA366211   4.181   5.444   4.538 -0.0329  0.5443 -0.4654
19156THY    HA366212   4.093   5.467   4.478  0.4444  0.1815  0.4670
19156THY    CA466213   4.273   5.349   4.494  0.1072  0.2773  0.4798
19156THY    HA466214   4.249   5.291   4.405 -2.6946  0.3896  1.3099
19156THY    CA566215   4.375   5.310   4.580 -0.0897 -0.2948 -0.4960
19156THY    CM166216   4.485   5.213   4.548  0.0206 -0.1263 -0.8202
19156THY    HM166217   4.550   5.247   4.466 -0.5716 -0.4356 -0.4214
19156THY    HM266218   4.445   5.115   4.519  1.9706 -0.1471 -1.6632
19156THY    HM366219   4.555   5.195   4.630  2.1951 -2.0185 -1.4673
19156THY    CA666220   4.380   5.372   4.704  0.5801  0.3545 -1.0109
19156THY    HA666221   4.455   5.343   4.778  2.2699 -0.9015 -0.0474
19157THY      O66222   0.106   7.038   7.326 -0.0933  0.0240 -0.9291
19157THY     HO66223   0.107   6.947   7.361 -2.8477  0.5383 -0.8604
19157THY    CA166224   0.222   7.093   7.362 -0.1642  0.3604 -0.2988
19157THY    CA266225   0.235   7.235   7.366  0.9367 -0.2564 -0.5533
19157THY    CP166226   0.119   7.336   7.320  0.1438  0.3257  0.1254
19157THY    HP166227   0.029   7.279   7.295 -0.6572 -1.4204  2.0139
19157THY    CP266228   0.161   7.428   7.207  0.0407 -0.6729 -0.2734
19157THY    HP266229   0.074   7.476   7.160  1.4098 -1.8318  1.1454
19157THY    HP366230   0.208   7.364   7.132 -0.2155  0.2319 -1.5588
19157THY    HP466231   0.232   7.498   7.253 -1.6800  1.6976  0.0654
19157THY    CP366232   0.071   7.429   7.430 -0.1198  0.0209 -0.1455
19157THY    HP566233   0.017   7.364   7.500 -1.5975 -2.2198 -1.4656
19157THY    HP666234   0.013   7.511   7.386  3.4879 -3.6388  0.7894
19157THY    HP766235   0.151   7.477   7.488  0.3850 -0.2380 -0.6726
19157THY    CA366236   0.353   7.292   7.409  0.0073  0.5320  0.0163
19157THY    HA366237   0.370   7.400   7.402  1.1177 -3.1495 -0.2522
19157THY    CA466238   0.465   7.211   7.447 -0.0764  0.3331 -0.0680
19157THY    HA466239   0.554   7.260   7.485 -0.0679 -0.7134  0.7806
19157THY    CA566240   0.444   7.073   7.444 -0.7611  0.1560  0.0463
19157THY    CM166241   0.551   6.983   7.480  0.2707 -0.6410  0.5984
19157THY    HM166242   0.583   6.924   7.393  1.7990  0.9748 -1.0908
19157THY    HM266243   0.522   6.931   7.572  0.4929 -0.3252  1.0228
19157THY    HM366244   0.636   7.047   7.507  1.7147  0.5783 -1.6864
19157THY    CA666245   0.324   7.016   7.404 -0.1552  0.1622  0.3686
19157THY    HA666246   0.308   6.909   7.411  0.6179 -2.8771 -0.0418
19158THY      O66247   2.681   4.987   5.865  0.3172 -0.4615  0.1705
19158THY     HO66248   2.692   5.081   5.844  0.3711 -0.6750  0.1177
19158THY    CA166249   2.769   4.919   5.788  0.9374  0.8995 -0.2243
19158THY    CA266250   2.801   4.785   5.811  0.1887 -0.6299 -0.4818
19158THY    CP166251   2.744   4.712   5.936  0.1634 -0.1291  0.5332
19158THY    HP166252   2.642   4.745   5.958 -0.0081 -1.0101  0.6373
19158THY    CP266253   2.820   4.745   6.058 -0.6662 -0.6694 -0.3913
19158THY    HP266254   2.779   4.686   6.141 -0.5366  1.8081  2.7636
19158THY    HP366255   2.802   4.848   6.090  0.0867  1.1267 -0.7817
19158THY    HP466256   2.928   4.724   6.056 -0.8362 -3.1264 -1.3879
19158THY    CP366257   2.740   4.558   5.933  0.0523 -0.0415  0.1678
19158THY    HP566258   2.674   4.530   5.850 -1.1963  0.6192  1.0490
19158THY    HP666259   2.698   4.516   6.025 -1.2167 -0.0446  1.3593
19158THY    HP766260   2.835   4.503   5.926 -0.3544  0.4006 -0.6103
19158THY    CA366261   2.907   4.726   5.738  0.0723  0.6919 -0.2617
19158THY    HA366262   2.937   4.623   5.752  0.5750 -0.0777 -0.2282
19158THY    CA466263   2.973   4.802   5.644  0.1566  0.3355  0.1331
19158THY    HA466264   3.049   4.748   5.588 -1.6857 -1.9788 -0.2071
19158THY    CA566265   2.944   4.935   5.622 -0.2178 -0.2520  0.0677
19158THY    CM166266   3.018   5.022   5.516  0.9328  0.3187 -0.0465
19158THY    HM166267   3.100   4.973   5.464  1.9904  0.1437  1.8376
19158THY    HM266268   3.052   5.119   5.555 -0.8536  1.3519  0.2206
19158THY    HM366269   2.944   5.039   5.437 -2.2505  3.3185  1.4434
19158THY    CA666270   2.838   4.995   5.698 -1.1226 -0.7797 -0.4537
19158THY    HA666271   2.814   5.101   5.687 -2.0186  1.2308 -0.4051
19159THY      O66272   6.397   7.275   4.036  0.4658 -0.4606  0.6866
19159THY     HO66273   6.386   7.181   4.015  1.0524 -0.7183  0.6721
19159THY    CA166274   6.279   7.322   4.069  0.4933 -0.1349  0.0951
19159THY    CA266275   6.263   7.435   4.159 -0.3164  0.4956  0.0322
19159THY    CP166276   6.386   7.505   4.217  0.0467 -0.6411 -0.4426
19159THY    HP166277   6.483   7.485   4.169  1.1810 -0.0685  2.9471
19159THY    CP266278   6.403   7.469   4.362  0.3552 -0.1238  0.8219
19159THY    HP266279   6.428   7.364   4.378 -1.5414  0.8906  0.4781
19159THY    HP366280   6.311   7.494   4.418 -0.8494 -2.4372  1.9398
19159THY    HP466281   6.484   7.532   4.399  0.3855  0.0444  0.6844
19159THY    CP366282   6.373   7.658   4.196 -0.1205 -0.4307  0.3604
19159THY    HP566283   6.466   7.714   4.211 -1.2052  0.0439  2.1134
19159THY    HP666284   6.292   7.705   4.253 -1.3318 -1.5036 -0.3628
19159THY    HP766285   6.337   7.674   4.093 -0.6807 -0.2115  0.5544
19159THY    CA366286   6.133   7.474   4.190 -1.0360 -0.1568 -0.3390
19159THY    HA366287   6.108   7.559   4.253 -2.0893  0.0338 -0.7832
19159THY    CA466288   6.027   7.415   4.124  0.3648  0.1407  0.4508
19159THY    HA466289   5.926   7.437   4.158  0.8048  0.2972  2.3677
19159THY    CA566290   6.041   7.310   4.034 -0.1927 -0.5463  0.8228
19159THY    CM166291   5.930   7.257   3.965  0.0322  0.8657  0.1302
19159THY    HM166292   5.950   7.154   3.933 -0.5109  1.3233 -0.1312
19159THY    HM266293   5.902   7.313   3.875 -0.5424  1.6440  1.1308
19159THY    HM366294   5.843   7.245   4.031  0.7239  1.9500  0.9259
19159THY    CA666295   6.168   7.262   4.011 -0.2656  0.2054 -0.2388
19159THY    HA666296   6.187   7.177   3.946  4.4159 -0.5874  1.1615
19160THY      O66297   2.929   1.701   6.411 -0.2500 -0.3242  0.0950
19160THY     HO66298   2.960   1.677   6.322 -1.2236 -0.8684  0.7947
19160THY    CA166299   2.814   1.634   6.421  0.5733  1.1083 -0.3040
19160THY    CA266300   2.720   1.644   6.523  0.2534 -0.3277 -0.0335
19160THY    CP166301   2.756   1.734   6.653 -0.1463  0.4114  0.5001
19160THY    HP166302   2.808   1.826   6.622 -0.7083 -2.6309 -0.0948
19160THY    CP266303   2.848   1.656   6.753 -0.3215  0.7980 -0.3307
19160THY    HP266304   2.843   1.711   6.848  0.0492  1.3782 -1.2850
19160THY    HP366305   2.948   1.645   6.709 -0.3822  0.1704  1.2896
19160THY    HP466306   2.810   1.556   6.776 -0.3731  0.1799 -0.4535
19160THY    CP366307   2.631   1.778   6.731  0.1556 -0.0139 -0.3720
19160THY    HP566308   2.583   1.690   6.777 -0.4548  0.3766  0.1569
19160THY    HP666309   2.565   1.818   6.654  0.3164 -1.2993 -2.4147
19160THY    HP766310   2.653   1.851   6.811 -2.2375  3.2638 -2.9107
19160THY    CA366311   2.604   1.566   6.526 -0.2243  0.6709 -0.1051
19160THY    HA366312   2.525   1.571   6.601 -1.5770 -0.7640  1.0397
19160THY    CA466313   2.579   1.482   6.413  0.3114  0.8761 -0.4415
19160THY    HA466314   2.486   1.427   6.403 -0.6877  1.3817  1.1011
19160THY    CA566315   2.675   1.468   6.314  0.0437 -0.3090 -0.4161
19160THY    CM166316   2.664   1.377   6.196  0.7821 -0.2607  0.2036
19160THY    HM166317   2.759   1.329   6.170 -0.3507 -1.3601 -1.5382
19160THY    HM266318   2.623   1.431   6.110  1.0348 -0.4166  0.1488
19160THY    HM366319   2.592   1.297   6.214 -0.4418  2.2379  1.7275
19160THY    CA666320   2.790   1.547   6.314 -0.3212 -0.6484 -0.3244
19160THY    HA666321   2.855   1.543   6.227  0.9202  0.2881 -1.2948
19161THY      O66322   0.113   6.629   2.343 -0.0417 -0.3163  0.4964
19161THY     HO66323   0.021   6.598   2.342  0.1925 -0.8405 -0.2039
19161THY    CA166324   0.178   6.522   2.393 -0.6088 -0.0947 -0.3944
19161THY    CA266325   0.305   6.534   2.454 -0.0555 -0.5044  0.2433
19161THY    CP166326   0.364   6.673   2.480  0.1639  0.1350 -0.4913
19161THY    HP166327   0.306   6.748   2.424 -1.2744 -0.9513 -2.3336
19161THY    CP266328   0.510   6.681   2.441 -0.7649  0.4390  0.8361
19161THY    HP266329   0.517   6.654   2.335  1.9124  0.0011  2.8790
19161THY    HP366330   0.570   6.600   2.484 -1.6085  0.7838  0.3800
19161THY    HP466331   0.555   6.780   2.434 -2.5813 -2.0154  1.5871
19161THY    CP366332   0.353   6.709   2.625  0.1591  0.2202  0.2851
19161THY    HP566333   0.266   6.773   2.640 -0.9341 -2.2750 -0.4837
19161THY    HP666334   0.444   6.761   2.659 -0.0397 -0.4882  1.1265
19161THY    HP766335   0.346   6.622   2.691  2.8635  0.3073  0.0394
19161THY    CA366336   0.369   6.430   2.519  0.0077 -0.6073 -0.2416
19161THY    HA366337   0.461   6.441   2.577 -0.7498  0.1305  3.4008
19161THY    CA466338   0.307   6.304   2.502  1.1742 -0.7465 -0.3416
19161THY    HA466339   0.358   6.220   2.548  2.2497  0.5481  0.9591
19161THY    CA566340   0.181   6.284   2.433 -0.1294  0.4055 -0.8909
19161THY    CM166341   0.111   6.154   2.438  0.1813 -0.3299  0.0659
19161THY    HM166342   0.094   6.110   2.339 -0.0816  0.3227 -1.3664
19161THY    HM266343   0.013   6.176   2.482 -0.2542 -1.0591 -0.3743
19161THY    HM366344   0.156   6.081   2.506  1.0004 -0.1689  0.7031
19161THY    CA666345   0.119   6.396   2.377 -0.0298  0.5921 -0.4341
19161THY    HA666346   0.022   6.392   2.327  1.1539 -2.0902  1.0879
19162THY      O66347   2.806   8.749   7.096  0.6282  0.6637  0.7532
19162THY     HO66348   2.826   8.834   7.053 -0.0055  1.4159  1.3091
19162THY    CA166349   2.914   8.712   7.164 -0.2952  0.2695  0.0729
19162THY    CA266350   2.919   8.605   7.256 -0.1354 -0.4809 -0.1324
19162THY    CP166351   2.803   8.509   7.279 -1.0352 -0.6237 -0.1197
19162THY    HP166352   2.728   8.528   7.201  0.2824 -1.9122 -0.0190
19162THY    CP266353   2.748   8.527   7.415  0.3804 -0.9835 -0.3043
19162THY    HP266354   2.677   8.450   7.449  1.7301 -1.8231 -1.9927
19162THY    HP366355   2.704   8.627   7.421  0.2026  1.3033 -0.4721
19162THY    HP466356   2.831   8.528   7.486 -0.7729  0.4562  1.7976
19162THY    CP366357   2.836   8.363   7.247  0.2558  0.1113 -0.4835
19162THY    HP566358   2.739   8.314   7.229  0.8263 -1.6465 -1.0542
19162THY    HP666359   2.892   8.317   7.329  0.4948 -0.7441 -1.7846
19162THY    HP766360   2.902   8.358   7.159  0.8200  0.5450 -0.7527
19162THY    CA366361   3.037   8.583   7.331  0.4056 -0.7063 -0.1492
19162THY    HA366362   3.029   8.509   7.410 -0.2024  0.2105  0.8692
19162THY    CA466363   3.147   8.670   7.326  0.1102 -0.4716 -0.2971
19162THY    HA466364   3.232   8.647   7.389  0.4137 -0.5840  0.5090
19162THY    CA566365   3.149   8.769   7.226 -0.8582  0.4236  0.0786
19162THY    CM166366   3.268   8.856   7.219 -0.0757 -0.3512  0.1957
19162THY    HM166367   3.329   8.845   7.128  0.3081 -0.0358 -0.3572
19162THY    HM266368   3.332   8.851   7.307  0.0248 -0.4009  0.5356
19162THY    HM366369   3.237   8.961   7.217 -2.2766  0.5759 -0.3923
19162THY    CA666370   3.029   8.797   7.155  0.3642 -0.4767  0.2138
19162THY    HA666371   3.024   8.884   7.090 -0.7112 -0.7237 -0.0193
19163THY      O66372   2.188   2.801   7.763 -0.0537 -0.2739  0.5443
19163THY     HO66373   2.222   2.724   7.811  1.3356 -1.1563  0.5645
19163THY    CA166374   2.164   2.749   7.640  0.4664 -0.3316  0.5311
19163THY    CA266375   2.132   2.826   7.528 -0.5618  0.1775  0.2745
19163THY    CP166376   2.118   2.975   7.529  0.2941  0.0952 -0.3453
19163THY    HP166377   2.158   3.021   7.620 -1.4211  0.1588  1.1500
19163THY    CP266378   1.967   3.006   7.526 -0.3657 -0.3282 -0.6028
19163THY    HP266379   1.930   2.937   7.602  0.0764  0.7039  0.2477
19163THY    HP366380   1.925   2.989   7.426  0.5775 -0.6829 -0.9142
19163THY    HP466381   1.944   3.108   7.561 -0.1921 -1.1227 -0.2797
19163THY    CP366382   2.185   3.038   7.406 -0.0193  0.0879 -0.1126
19163THY    HP566383   2.124   3.034   7.315  0.1165  0.0361 -2.6396
19163THY    HP666384   2.282   3.001   7.373 -0.6499 -0.9124 -0.9468
19163THY    HP766385   2.211   3.141   7.435  2.1557  2.0633 -1.1534
19163THY    CA366386   2.098   2.764   7.404 -0.0316 -0.3723  0.5053
19163THY    HA366387   2.053   2.821   7.323 -1.3342 -0.5748 -0.7628
19163THY    CA466388   2.117   2.628   7.391  0.1690 -0.1490 -0.2139
19163THY    HA466389   2.089   2.583   7.297  1.5121 -0.0840 -1.2550
19163THY    CA566390   2.157   2.550   7.502  0.5120  0.0729  0.4250
19163THY    CM166391   2.187   2.402   7.486 -0.2081 -0.0017 -0.3729
19163THY    HM166392   2.211   2.342   7.575  0.1749 -0.5295 -1.0163
19163THY    HM266393   2.268   2.384   7.415  1.5234  1.1481  2.2385
19163THY    HM366394   2.098   2.355   7.442 -0.4733 -0.4333  0.5161
19163THY    CA666395   2.181   2.611   7.625  0.8762 -0.2727  0.0047
19163THY    HA666396   2.213   2.547   7.707  0.9840 -0.9753 -0.8604
19164THY      O66397   5.552   2.553   2.648  0.1962  0.0860 -0.0936
19164THY     HO66398   5.633   2.543   2.701 -1.6166  2.8939 -0.7926
19164THY    CA166399   5.461   2.514   2.735 -0.1811  0.2606  0.1215
19164THY    CA266400   5.330   2.501   2.684  0.3001 -0.0684  0.1409
19164THY    CP166401   5.288   2.518   2.542 -0.1415 -0.0900 -0.7591
19164THY    HP166402   5.380   2.515   2.483 -0.2987 -0.3468 -0.5624
19164THY    CP266403   5.205   2.645   2.537 -0.1602  0.4572 -0.8856
19164THY    HP266404   5.175   2.686   2.440  0.4181  1.0350  1.0099
19164THY    HP366405   5.265   2.734   2.561 -1.2135 -3.4426  1.1185
19164THY    HP466406   5.109   2.652   2.590 -0.9015 -1.0184  1.1145
19164THY    CP366407   5.212   2.394   2.500  0.0766 -0.3589 -0.1822
19164THY    HP566408   5.256   2.298   2.528 -0.4125 -0.6071 -0.4761
19164THY    HP666409   5.209   2.384   2.391  0.5144 -0.2154 -2.3288
19164THY    HP766410   5.110   2.403   2.538 -0.5312 -2.2718  1.9376
19164THY    CA366411   5.232   2.476   2.784  0.2540  0.1611  0.5335
19164THY    HA366412   5.127   2.458   2.763  0.4586 -0.7242  0.3274
19164THY    CA466413   5.269   2.468   2.916  0.6868 -0.3774 -0.2119
19164THY    HA466414   5.194   2.462   2.994  0.1970 -0.1534  4.9113
19164THY    CA566415   5.400   2.487   2.959 -0.2559  0.3614  0.8582
19164THY    CM166416   5.432   2.484   3.108 -0.1984  0.4007  0.0753
19164THY    HM166417   5.349   2.436   3.161  1.1890  1.8266 -0.8401
19164THY    HM266418   5.444   2.583   3.154 -0.7864 -1.2790  0.9616
19164THY    HM366419   5.512   2.415   3.137 -0.4503  0.2347 -0.2923
19164THY    CA666420   5.493   2.509   2.867 -0.3577 -0.1124 -0.1233
19164THY    HA666421   5.592   2.536   2.902 -0.1254 -1.4678  0.8954
19165THY      O66422   8.397   8.665   7.658  0.1510 -0.0903  0.5178
19165THY     HO66423   8.425   8.705   7.742  1.5534 -0.7050  0.8733
19165THY    CA166424   8.414   8.757   7.570  0.1361 -0.1468 -0.7818
19165THY    CA266425   8.382   8.734   7.432  0.9056 -0.8798 -0.7100
19165THY    CP166426   8.342   8.605   7.371  0.5800  0.0076 -0.0943
19165THY    HP166427   8.350   8.534   7.453  0.0691  2.4901  2.5272
19165THY    CP266428   8.418   8.564   7.247 -0.6336  0.6083  0.3007
19165THY    HP266429   8.391   8.630   7.163  2.0274  1.2870  2.3969
19165THY    HP366430   8.402   8.456   7.236 -1.4376  0.9051  0.3786
19165THY    HP466431   8.527   8.571   7.248 -0.3870 -0.4441 -2.1127
19165THY    CP366432   8.197   8.588   7.335  0.2270 -0.3843  0.0346
19165THY    HP566433   8.179   8.485   7.302 -0.8683 -1.2126  0.4701
19165THY    HP666434   8.159   8.664   7.265 -2.7745  2.5173  1.4652
19165THY    HP766435   8.137   8.611   7.423  1.1801  0.8315 -1.9103
19165THY    CA366436   8.396   8.846   7.346 -0.1743  0.2914  0.2469
19165THY    HA366437   8.363   8.844   7.243  1.6910 -0.3223 -0.4507
19165THY    CA466438   8.430   8.975   7.395 -0.6386  0.5857  0.2155
19165THY    HA466439   8.444   9.061   7.331  1.4648  0.6588 -0.0222
19165THY    CA566440   8.466   8.992   7.529  0.0137  0.1802  0.7113
19165THY    CM166441   8.481   9.134   7.578 -0.2424  0.2598  0.1017
19165THY    HM166442   8.553   9.188   7.515 -0.9881 -0.1462  0.6544
19165THY    HM266443   8.530   9.150   7.675  1.0944 -0.3580 -0.1277
19165THY    HM366444   8.385   9.187   7.571  0.9232  1.8026  2.5912
19165THY    CA666445   8.454   8.887   7.615 -0.7288 -0.3059  0.0566
19165THY    HA666446   8.465   8.911   7.721  1.8051 -0.5676  0.3058
19166THY      O66447   2.241   9.080   2.255 -0.2879  0.1033  0.1051
19166THY     HO66448   2.275   9.171   2.257  2.3804  1.8941 -0.8243
19166THY    CA166449   2.112   9.089   2.291 -0.4749  0.9603  0.6120
19166THY    CA266450   2.038   8.979   2.327  0.5178 -0.6008  0.6121
19166THY    CP166451   2.106   8.841   2.324 -0.0469  0.0439 -0.5545
19166THY    HP166452   2.214   8.840   2.341  0.1493 -0.9957 -2.3608
19166THY    CP266453   2.086   8.771   2.190  0.3120  0.2143  0.5321
19166THY    HP266454   2.098   8.837   2.103 -1.0502 -0.6898 -0.3496
19166THY    HP366455   1.985   8.729   2.179  1.3941  2.3929 -3.1916
19166THY    HP466456   2.155   8.686   2.184 -1.3751 -1.7209 -0.8029
19166THY    CP366457   2.041   8.748   2.429  0.3061 -0.1761  0.8899
19166THY    HP566458   2.107   8.661   2.444  1.8175  0.9491  2.1497
19166THY    HP666459   1.942   8.708   2.407 -0.1241 -0.5696  2.1341
19166THY    HP766460   2.041   8.807   2.522 -0.3587  1.3510 -1.3786
19166THY    CA366461   1.904   8.991   2.362  0.6060 -0.1511 -1.0253
19166THY    HA366462   1.843   8.905   2.386 -1.4769  0.0519  0.4289
19166THY    CA466463   1.840   9.120   2.352  0.2386 -0.2799  0.1101
19166THY    HA466464   1.734   9.138   2.366  0.0034  0.6451 -1.6977
19166THY    CA566465   1.919   9.235   2.317  0.2718  0.0309  0.0768
19166THY    CM166466   1.857   9.374   2.297  0.5496 -0.2143  0.6977
19166THY    HM166467   1.867   9.438   2.385  1.3842 -0.9118  1.5784
19166THY    HM266468   1.752   9.368   2.266  0.2366  0.9671 -0.1475
19166THY    HM366469   1.903   9.430   2.213  3.1184 -0.2970 -1.3306
19166THY    CA666470   2.058   9.217   2.289 -0.0303 -0.7761  0.0317
19166THY    HA666471   2.119   9.297   2.249 -1.7872 -1.4762  1.0701
19167THY      O66472   2.533   0.927   5.987 -0.0284 -0.1239  0.1768
19167THY     HO66473   2.578   0.845   5.960  0.3656  2.3866 -0.5097
19167THY    CA166474   2.406   0.913   5.941  0.2712  0.5686  0.0905
19167THY    CA266475   2.312   1.014   5.945  1.2890 -0.2443 -0.8541
19167THY    CP166476   2.351   1.153   5.994  0.3586  0.3133 -0.0082
19167THY    HP166477   2.458   1.148   6.022 -0.0849  1.9555 -2.4656
19167THY    CP266478   2.268   1.197   6.115  0.3343 -0.0739  0.0492
19167THY    HP266479   2.299   1.137   6.202  0.3566 -0.7455 -0.9427
19167THY    HP366480   2.164   1.178   6.087 -0.0347  1.9506 -1.2189
19167THY    HP466481   2.284   1.304   6.130  0.0698 -3.6401  0.7307
19167THY    CP366482   2.353   1.251   5.872 -1.0088  0.6548 -0.8241
19167THY    HP566483   2.406   1.199   5.792  0.5044  2.3106 -1.9699
19167THY    HP666484   2.398   1.348   5.895 -0.0530  2.1796 -1.5839
19167THY    HP766485   2.251   1.269   5.835  0.1368 -2.6392 -0.4621
19167THY    CA366486   2.190   0.996   5.876  1.0069 -0.8955 -0.2304
19167THY    HA366487   2.125   1.081   5.857  0.4478 -0.5301 -0.5740
19167THY    CA466488   2.166   0.881   5.809  0.1598 -0.9261  0.0679
19167THY    HA466489   2.080   0.883   5.743  0.9269 -1.9934  2.4230
19167THY    CA566490   2.257   0.778   5.808  0.3527  0.1249  0.5064
19167THY    CM166491   2.241   0.637   5.732 -0.4980  0.0254 -0.4382
19167THY    HM166492   2.149   0.637   5.673 -1.3032  1.2330  0.7763
19167THY    HM266493   2.245   0.557   5.808  1.7920  0.1451 -0.2990
19167THY    HM366494   2.315   0.623   5.652 -1.0704 -0.5878 -0.0313
19167THY    CA666495   2.378   0.795   5.881  0.5592 -0.1865 -1.0237
19167THY    HA666496   2.454   0.718   5.871  0.9184 -1.9482 -0.4664
19168THY      O66497   6.770   7.689   7.157 -0.5752  0.2466 -0.6540
19168THY     HO66498   6.772   7.743   7.238  3.1538  0.3226 -0.6899
19168THY    CA166499   6.841   7.583   7.205  0.4066  0.0174 -0.3059
19168THY    CA266500   6.837   7.458   7.152 -0.5348  0.4885 -0.0573
19168THY    CP166501   6.739   7.418   7.038 -0.0007 -0.2298  0.1473
19168THY    HP166502   6.724   7.500   6.966 -1.0232 -0.0412  0.1407
19168THY    CP266503   6.603   7.387   7.086  0.1222 -0.1485  0.4354
19168THY    HP266504   6.593   7.288   7.132  1.5331 -2.8932 -1.1156
19168THY    HP366505   6.546   7.371   6.994 -1.0318  0.7895 -1.0461
19168THY    HP466506   6.564   7.456   7.162  1.2070  1.2646 -0.4379
19168THY    CP366507   6.794   7.302   6.954  0.0847 -0.1432 -0.1571
19168THY    HP566508   6.890   7.323   6.907  0.9777  2.3352  1.7858
19168THY    HP666509   6.716   7.285   6.878 -0.8098  0.7611 -0.2215
19168THY    HP766510   6.801   7.210   7.013 -1.0972 -2.1520 -1.6012
19168THY    CA366511   6.925   7.359   7.212 -0.2623  0.1918 -0.2463
19168THY    HA366512   6.919   7.254   7.184 -0.3183  0.7576 -0.3981
19168THY    CA466513   7.008   7.389   7.317  0.7129  0.3606 -0.2454
19168THY    HA466514   7.077   7.323   7.367  1.2360 -0.6375 -0.4707
19168THY    CA566515   7.005   7.518   7.372 -0.0951 -1.3766  0.2962
19168THY    CM166516   7.072   7.561   7.499 -0.2762 -0.0621 -0.1984
19168THY    HM166517   7.161   7.501   7.522  0.0244 -1.8489 -0.4848
19168THY    HM266518   7.007   7.546   7.587  1.0052  1.0700  0.6267
19168THY    HM366519   7.112   7.662   7.500  1.9172 -0.3166 -1.0108
19168THY    CA666520   6.921   7.609   7.311  0.3282 -0.2990 -0.3154
19168THY    HA666521   6.920   7.710   7.353  1.6995 -1.0962  0.0618
19169THY      O66522   3.399   8.468   2.229 -0.4940  0.1122  0.0899
19169THY     HO66523   3.365   8.398   2.287 -0.2292 -0.9447 -0.9603
19169THY    CA166524   3.396   8.419   2.101  0.2328 -0.4033 -0.4684
19169THY    CA266525   3.451   8.504   1.997  0.1357 -0.2630  0.5170
19169THY    CP166526   3.523   8.631   2.020  0.5490 -0.3519  0.0491
19169THY    HP166527   3.552   8.628   2.125 -1.6542  0.3719  1.2306
19169THY    CP266528   3.419   8.748   2.033  0.1982 -0.0214  0.5100
19169THY    HP266529   3.352   8.726   2.116  2.4944  1.2753 -2.2480
19169THY    HP366530   3.375   8.772   1.936  0.6560  0.2726  2.7849
19169THY    HP466531   3.473   8.836   2.070  3.0869  0.4450 -1.3088
19169THY    CP366532   3.645   8.675   1.938 -0.1559 -1.1375  0.0664
19169THY    HP566533   3.627   8.706   1.834  0.9546 -0.9673  1.3651
19169THY    HP666534   3.714   8.590   1.941  0.7064 -0.0147  0.7816
19169THY    HP766535   3.681   8.764   1.990 -1.1813 -0.5150  0.1373
19169THY    CA366536   3.437   8.445   1.868  0.0407  0.1977  0.4801
19169THY    HA366537   3.495   8.495   1.792  0.5283  2.1961  3.1787
19169THY    CA466538   3.377   8.320   1.845  0.0616  0.6333  0.4238
19169THY    HA466539   3.382   8.270   1.749 -4.1296  0.2054  0.4674
19169THY    CA566540   3.332   8.249   1.950  0.7439  0.5505  0.5439
19169THY    CM166541   3.268   8.115   1.924  0.0558 -0.2481 -0.8497
19169THY    HM166542   3.248   8.060   2.017  2.7534 -0.2602 -2.0231
19169THY    HM266543   3.346   8.054   1.877  0.2486  0.6463 -1.3192
19169THY    HM366544   3.179   8.135   1.864  0.7136 -0.5368  1.5841
19169THY    CA666545   3.340   8.295   2.080 -0.0120 -0.9427  0.5224
19169THY    HA666546   3.301   8.239   2.164 -0.4424 -0.4764  1.4967
19170THY      O66547   3.812   7.284   3.370 -0.6366 -0.1485 -0.2127
19170THY     HO66548   3.796   7.228   3.448  2.9640  0.0753 -1.1612
19170THY    CA166549   3.813   7.407   3.427 -0.0035 -0.2187  0.5720
19170THY    CA266550   3.852   7.526   3.355  0.2727  0.1333  0.0569
19170THY    CP166551   3.874   7.524   3.203 -0.1553  0.3511  0.6111
19170THY    HP166552   3.906   7.421   3.183 -2.0227 -1.0830  0.2546
19170THY    CP266553   3.986   7.623   3.152 -0.0941 -0.0378  0.2498
19170THY    HP266554   4.069   7.632   3.223  0.1579 -0.1590 -0.9400
19170THY    HP366555   3.949   7.725   3.132  2.0098 -0.8193  0.9044
19170THY    HP466556   4.036   7.595   3.059  0.6150  0.9451 -1.9583
19170THY    CP366557   3.749   7.537   3.116  0.9798  0.1044  0.5100
19170THY    HP566558   3.774   7.523   3.010 -0.1679 -0.1624  0.3624
19170THY    HP666559   3.700   7.635   3.123 -0.6551  0.9439 -0.3285
19170THY    HP766560   3.677   7.460   3.148  0.1171 -0.9348  0.8502
19170THY    CA366561   3.854   7.656   3.422 -0.2710 -0.2385 -0.1397
19170THY    HA366562   3.878   7.747   3.367  1.0553  0.3348 -0.1166
19170THY    CA466563   3.824   7.654   3.556  0.3512 -0.4437 -0.0870
19170THY    HA466564   3.820   7.743   3.618  1.4099  2.3173 -1.8519
19170THY    CA566565   3.773   7.536   3.620 -0.6281  0.4755 -0.2723
19170THY    CM166566   3.704   7.553   3.755  0.3961  0.3647  0.3414
19170THY    HM166567   3.719   7.466   3.820  0.5461 -0.5676 -0.3522
19170THY    HM266568   3.596   7.563   3.745  0.1641 -0.2154 -1.9777
19170THY    HM366569   3.733   7.645   3.807  0.1077  0.2486  0.4981
19170THY    CA666570   3.776   7.413   3.560 -0.1946 -0.1149  0.8735
19170THY    HA666571   3.744   7.321   3.609  0.1711 -1.5211 -0.0476
19171THY      O66572   7.394   5.086   4.627  0.0240  0.2814 -0.0398
19171THY     HO66573   7.412   5.159   4.690  0.2391 -1.4365  1.4592
19171THY    CA166574   7.462   5.131   4.517 -0.0678 -0.5102 -1.0115
19171THY    CA266575   7.432   5.096   4.385 -0.3225 -0.1674  0.0169
19171THY    CP166576   7.303   5.017   4.364  0.0667 -0.4557 -0.2340
19171THY    HP166577   7.231   5.046   4.441 -0.8974 -1.4151 -0.0177
19171THY    CP266578   7.343   4.870   4.384  0.0853  0.4559  0.6702
19171THY    HP266579   7.419   4.841   4.311 -0.4060  0.1714  0.0818
19171THY    HP366580   7.256   4.807   4.362  1.7122  0.7825 -1.8087
19171THY    HP466581   7.368   4.850   4.489 -1.3441  0.1638 -3.6797
19171THY    CP366582   7.238   5.027   4.220  0.5467 -0.5876 -0.8011
19171THY    HP566583   7.199   5.128   4.199  2.1980 -0.0603 -0.0079
19171THY    HP666584   7.151   4.961   4.213 -0.7756 -0.7487  0.8986
19171THY    HP766585   7.316   5.002   4.147  0.4570 -1.2166  0.6290
19171THY    CA366586   7.506   5.151   4.276  0.3846 -0.5629 -0.1331
19171THY    HA366587   7.474   5.131   4.174 -0.2229 -0.8304  2.0250
19171THY    CA466588   7.618   5.231   4.307 -0.3648 -0.5154 -0.2901
19171THY    HA466589   7.664   5.277   4.220 -0.3535 -0.7166 -0.6747
19171THY    CA566590   7.650   5.263   4.441  0.1069 -0.0770  0.3475
19171THY    CM166591   7.783   5.328   4.471  0.2600 -0.0770  0.7339
19171THY    HM166592   7.827   5.361   4.376  0.3445 -0.7305 -1.1542
19171THY    HM266593   7.849   5.254   4.517 -0.2545 -1.7690 -0.8609
19171THY    HM366594   7.758   5.411   4.539 -1.7639  1.9068 -1.3437
19171THY    CA666595   7.572   5.209   4.542  0.2409  0.2575  0.2216
19171THY    HA666596   7.601   5.226   4.645 -1.9110  0.8689  0.5440
19172THY      O66597   2.010   9.169   2.641 -0.3739 -0.2321  0.0478
19172THY     HO66598   1.930   9.132   2.599 -1.6577  3.2081 -1.5497
19172THY    CA166599   1.968   9.284   2.688 -0.8056  0.5581  0.7138
19172THY    CA266600   2.055   9.361   2.761  0.5039  0.0265 -0.7106
19172THY    CP166601   2.192   9.317   2.802 -0.0548  0.3764  0.4934
19172THY    HP166602   2.218   9.216   2.771 -0.0903 -0.4890  0.7412
19172THY    CP266603   2.209   9.328   2.957 -0.3456  0.6240  0.0167
19172THY    HP266604   2.151   9.248   3.004 -2.2125  0.4748  1.2174
19172THY    HP366605   2.183   9.423   3.004  0.2704  1.0758 -0.0313
19172THY    HP466606   2.316   9.313   2.978 -0.0892 -0.7851 -0.2739
19172THY    CP366607   2.292   9.409   2.746 -0.3398  0.1623 -0.5246
19172THY    HP566608   2.303   9.510   2.789 -0.3601 -3.4939  1.2173
19172THY    HP666609   2.290   9.425   2.637  1.1627  0.4207  2.0752
19172THY    HP766610   2.392   9.364   2.749  0.5109 -2.2347  0.9668
19172THY    CA366611   2.007   9.486   2.810 -0.1810 -0.5243 -0.0000
19172THY    HA366612   2.072   9.553   2.865 -0.6296 -0.7537  0.6351
19172THY    CA466613   1.877   9.515   2.788  0.1705 -1.3099  0.4336
19172THY    HA466614   1.830   9.601   2.834  0.1561  2.4320 -1.3574
19172THY    CA566615   1.800   9.441   2.704  0.3506  1.0304  0.3834
19172THY    CM166616   1.650   9.485   2.685 -0.6084  0.2033  0.2103
19172THY    HM166617   1.625   9.490   2.579  4.3181 -1.1705  0.9616
19172THY    HM266618   1.637   9.583   2.733  0.9014 -0.4077  0.7395
19172THY    HM366619   1.601   9.413   2.751 -1.8844  1.6521  2.2847
19172THY    CA666620   1.844   9.321   2.653 -0.2985  0.3745  0.5077
19172THY    HA666621   1.779   9.267   2.584 -1.0548 -0.6170  2.5506
19173THY      O66622   0.574   7.552   7.597 -0.5223  0.3166 -0.7702
19173THY     HO66623   0.536   7.539   7.686 -0.7840  0.4583  0.7730
19173THY    CA166624   0.476   7.624   7.521 -0.0962 -0.2085 -0.4218
19173THY    CA266625   0.488   7.630   7.381 -0.2825 -0.3561 -0.3061
19173THY    CP166626   0.613   7.578   7.308  0.4392  0.6481 -0.4807
19173THY    HP166627   0.648   7.484   7.352  0.6256  0.2780 -0.5828
19173THY    CP266628   0.718   7.691   7.288  1.1350 -0.7413  0.2996
19173THY    HP266629   0.766   7.725   7.380  0.6566 -0.7428  1.0143
19173THY    HP366630   0.676   7.780   7.239 -0.5834  1.8966  1.0700
19173THY    HP466631   0.803   7.638   7.245  1.8504  1.4153 -0.3940
19173THY    CP366632   0.567   7.534   7.164  0.2256  0.4833 -0.0535
19173THY    HP566633   0.646   7.479   7.110 -0.8758 -4.2052  2.4399
19173THY    HP666634   0.545   7.616   7.094  0.5788 -0.1044 -0.4500
19173THY    HP766635   0.479   7.471   7.179 -0.6418 -0.5494  0.8809
19173THY    CA366636   0.402   7.721   7.315  0.1339 -0.6884 -0.1334
19173THY    HA366637   0.413   7.740   7.209 -2.7055 -1.1403 -0.5578
19173THY    CA466638   0.300   7.779   7.384  0.1626 -0.3462  0.0023
19173THY    HA466639   0.239   7.853   7.333  0.4855  0.7785  1.0955
19173THY    CA566640   0.267   7.745   7.518  0.5339 -0.0369  0.4804
19173THY    CM166641   0.147   7.807   7.589 -0.0815 -0.4921 -0.0874
19173THY    HM166642   0.109   7.897   7.539 -1.0066 -0.5209 -0.4833
19173THY    HM266643   0.181   7.837   7.688  1.5124 -1.5407  1.7976
19173THY    HM366644   0.065   7.734   7.591 -2.4943  0.0756  2.5016
19173THY    CA666645   0.362   7.663   7.584 -0.4348 -0.1409 -0.1014
19173THY    HA666646   0.353   7.642   7.690  3.4838  0.4066  0.1646
19174THY      O66647   0.440   4.475   4.787  0.0823 -0.6868 -0.0674
19174THY     HO66648   0.475   4.385   4.799 -0.5459 -0.8287 -0.3331
19174THY    CA166649   0.407   4.477   4.655  0.3435  0.4068  0.5196
19174THY    CA266650   0.344   4.588   4.596 -0.6378 -0.0460 -0.4325
19174THY    CP166651   0.309   4.710   4.679 -0.0505  1.1733  0.7195
19174THY    HP166652   0.371   4.710   4.769  1.5232  0.1653 -0.8907
19174THY    CP266653   0.172   4.710   4.739  0.7639  0.2517 -0.5634
19174THY    HP266654   0.132   4.812   4.739 -0.6332  1.3584 -1.0664
19174THY    HP366655   0.162   4.671   4.841  1.3407  0.7988  0.7010
19174THY    HP466656   0.095   4.654   4.684 -0.1932  1.4989 -0.5349
19174THY    CP366657   0.328   4.842   4.601 -0.2674 -0.5697  0.3596
19174THY    HP566658   0.250   4.859   4.525 -0.6244 -0.3656 -0.3443
19174THY    HP666659   0.429   4.835   4.558 -0.0647  0.1620 -2.7046
19174THY    HP766660   0.324   4.929   4.667 -0.7880 -0.2657  0.1061
19174THY    CA366661   0.287   4.581   4.472  0.2889 -0.0480  0.1899
19174THY    HA366662   0.231   4.667   4.436 -0.0558  1.8748  0.8210
19174THY    CA466663   0.314   4.467   4.396 -0.6689 -0.2375  0.2787
19174THY    HA466664   0.266   4.453   4.300  0.6896 -0.7063 -1.4504
19174THY    CA566665   0.385   4.357   4.445  0.1953 -0.6701  0.2835
19174THY    CM166666   0.407   4.230   4.356  0.9134 -0.9431  0.0717
19174THY    HM166667   0.504   4.238   4.305  0.9859 -0.7297  0.5618
19174THY    HM266668   0.331   4.225   4.278 -0.9346  0.6048  1.9369
19174THY    HM366669   0.411   4.138   4.417 -0.8671 -0.5168  0.2402
19174THY    CA666670   0.436   4.360   4.581  0.2198 -0.1350  0.1022
19174THY    HA666671   0.496   4.280   4.624 -0.7464  1.9109  0.4422
19175THY      O66672   0.894   4.919   4.271 -0.1021 -0.1560 -0.0771
19175THY     HO66673   0.870   4.957   4.185  1.5538 -0.4681  0.3426
19175THY    CA166674   0.934   5.021   4.349  0.0417  0.0010 -0.1155
19175THY    CA266675   0.847   5.074   4.450  0.4706 -0.1927  0.3393
19175THY    CP166676   0.716   5.003   4.483 -0.4015 -0.2515 -0.4533
19175THY    HP166677   0.679   4.939   4.401 -0.4214 -0.4054 -0.2451
19175THY    CP266678   0.604   5.100   4.509 -0.7884  0.3932  0.4405
19175THY    HP266679   0.506   5.067   4.475 -0.9370  1.4878 -0.2909
19175THY    HP366680   0.616   5.191   4.449 -2.6620 -2.5392 -1.1185
19175THY    HP466681   0.590   5.130   4.614  0.4383  0.1326  2.0507
19175THY    CP366682   0.723   4.928   4.617  0.1604  0.5151  0.3614
19175THY    HP566683   0.777   4.991   4.689 -0.2519 -0.0254  1.3509
19175THY    HP666684   0.780   4.838   4.591  1.0734 -2.0072  1.5526
19175THY    HP766685   0.630   4.897   4.666  0.8547  1.9617  0.4684
19175THY    CA366686   0.906   5.176   4.532 -0.4071  0.2806 -0.2763
19175THY    HA366687   0.849   5.213   4.617  0.9677 -0.3778  3.7807
19175THY    CA466688   1.030   5.236   4.503  0.0934  0.0289  0.0093
19175THY    HA466689   1.067   5.317   4.564  1.2487 -0.6451  0.0059
19175THY    CA566690   1.100   5.190   4.390 -0.0065  0.6661 -0.8069
19175THY    CM166691   1.228   5.253   4.352  0.1528 -0.7800 -0.5051
19175THY    HM166692   1.249   5.337   4.419 -0.2257 -0.5204 -0.6095
19175THY    HM266693   1.225   5.284   4.247 -0.9386 -1.0414 -1.4397
19175THY    HM366694   1.313   5.187   4.372 -0.6212  0.1329 -1.2552
19175THY    CA666695   1.057   5.081   4.314  0.0965  0.4877 -0.6489
19175THY    HA666696   1.117   5.036   4.236  1.9320  2.8786 -2.6154
19176THY      O66697   4.919   4.717   5.055 -1.0385 -0.4553  0.7862
19176THY     HO66698   4.949   4.804   5.087 -2.8520  4.9749 -0.2387
19176THY    CA166699   4.994   4.627   5.127 -0.4512  0.5438 -0.1825
19176THY    CA266700   4.968   4.494   5.102  0.0386 -0.4389  0.2946
19176THY    CP166701   4.852   4.442   5.021  0.5991 -0.1100 -0.0596
19176THY    HP166702   4.771   4.517   5.026 -0.8728 -1.8190 -1.4446
19176THY    CP266703   4.786   4.314   5.068 -0.0195  0.1092 -0.6807
19176THY    HP266704   4.691   4.304   5.014 -0.1070  0.2694 -0.7223
19176THY    HP366705   4.769   4.321   5.176 -2.4052 -0.2990  0.9802
19176THY    HP466706   4.850   4.227   5.047 -1.5960  0.7732 -2.0803
19176THY    CP366707   4.892   4.449   4.871 -0.3038  0.0182 -0.7095
19176THY    HP566708   4.946   4.542   4.851  0.8155 -2.4513 -1.7951
19176THY    HP666709   4.807   4.438   4.803  1.4181 -2.8961  2.2043
19176THY    HP766710   4.966   4.376   4.834 -0.4435 -4.0163  0.9601
19176THY    CA366711   5.063   4.401   5.161 -0.1496  0.1658  0.3751
19176THY    HA366712   5.061   4.296   5.131 -0.6163  0.7000  0.2273
19176THY    CA466713   5.175   4.444   5.236 -0.1635 -0.8856  0.1625
19176THY    HA466714   5.242   4.365   5.269 -0.7330  0.0283  0.0431
19176THY    CA566715   5.187   4.582   5.268 -0.1249 -0.3162 -0.0571
19176THY    CM166716   5.307   4.621   5.353  0.3199 -0.0991  0.2519
19176THY    HM166717   5.378   4.537   5.356 -2.1276  2.6420 -1.9182
19176THY    HM266718   5.281   4.640   5.457  0.9849  0.5169 -1.9336
19176THY    HM366719   5.362   4.708   5.314  1.8905  1.1014 -0.1652
19176THY    CA666720   5.096   4.674   5.210  0.0090 -0.0746  0.0881
19176THY    HA666721   5.116   4.780   5.221  0.0933  0.4662  0.0191
19177THY      O66722   7.320   7.680   3.118 -0.1911 -0.4652  0.3215
19177THY     HO66723   7.353   7.669   3.209 -0.1246 -0.4678  0.5034
19177THY    CA166724   7.435   7.646   3.056 -0.1201  0.3758  0.0177
19177THY    CA266725   7.426   7.567   2.934 -0.2110 -0.0895 -0.4858
19177THY    CP166726   7.296   7.502   2.880  0.6447 -0.2337 -0.2346
19177THY    HP166727   7.208   7.526   2.941  1.2223  0.4631  0.1773
19177THY    CP266728   7.310   7.352   2.858  0.5118 -0.2417 -0.1846
19177THY    HP266729   7.390   7.327   2.787  2.8681  2.0446  0.4555
19177THY    HP366730   7.212   7.324   2.816  0.4367  0.2957 -0.7559
19177THY    HP466731   7.315   7.306   2.957 -0.3959 -0.1237 -0.0470
19177THY    CP366732   7.264   7.570   2.740 -0.4689  0.2640  0.2902
19177THY    HP566733   7.160   7.550   2.713 -0.6383  1.8780 -1.2926
19177THY    HP666734   7.338   7.521   2.674 -0.3480  0.9639 -0.4994
19177THY    HP766735   7.274   7.679   2.733  1.5668 -0.1140  0.1301
19177THY    CA366736   7.544   7.536   2.869  0.4398 -0.0834  0.2346
19177THY    HA366737   7.548   7.471   2.782 -0.3797  1.1344 -1.5137
19177THY    CA466738   7.662   7.585   2.919 -0.8836 -0.3008  0.1987
19177THY    HA466739   7.750   7.570   2.858 -0.3518  0.2302  1.0373
19177THY    CA566740   7.670   7.665   3.028 -0.5916 -0.4838 -0.3070
19177THY    CM166741   7.804   7.722   3.069 -0.3476 -0.3876  0.1036
19177THY    HM166742   7.788   7.816   3.123 -0.7091  1.2533 -0.8709
19177THY    HM266743   7.879   7.723   2.989  0.2590  0.0295 -2.7403
19177THY    HM366744   7.831   7.651   3.148  0.0684  0.7931  1.5420
19177THY    CA666745   7.550   7.705   3.104  0.1487  0.3703 -0.1382
19177THY    HA666746   7.549   7.779   3.183 -0.7307 -0.4325  0.7290
19178THY      O66747   3.109   0.526   5.767  0.2326 -0.2206  0.3996
19178THY     HO66748   3.118   0.544   5.672 -1.2530 -0.4769 -0.0273
19178THY    CA166749   3.234   0.510   5.818 -0.0362 -0.1320  0.0463
19178THY    CA266750   3.259   0.434   5.935  0.6061 -0.0181  0.1469
19178THY    CP166751   3.145   0.375   6.016  0.0938  0.5165  0.4105
19178THY    HP166752   3.049   0.396   5.966 -0.0546  0.3340 -0.6131
19178THY    CP266753   3.118   0.436   6.160 -0.4717 -0.3459 -0.2371
19178THY    HP266754   3.204   0.409   6.222  1.9325 -3.3896 -0.0766
19178THY    HP366755   3.034   0.387   6.211  0.5253 -0.5675 -2.2802
19178THY    HP466756   3.093   0.543   6.154  1.2905 -1.8415  0.1413
19178THY    CP366757   3.152   0.220   6.039  1.2612  0.0099  0.0230
19178THY    HP566758   3.174   0.168   5.945  0.6176 -0.1381  0.0121
19178THY    HP666759   3.054   0.183   6.070  0.9382  0.1890  1.0027
19178THY    HP766760   3.223   0.198   6.120 -0.4487  1.3375 -0.8081
19178THY    CA366761   3.397   0.419   5.975 -0.7092  0.1632 -0.3685
19178THY    HA366762   3.422   0.376   6.071 -0.4655  0.2837  0.0362
19178THY    CA466763   3.502   0.477   5.900 -0.3726 -0.0160 -0.4438
19178THY    HA466764   3.606   0.466   5.930 -0.3442  0.2245  0.4194
19178THY    CA566765   3.468   0.554   5.786 -0.5079 -0.3534  0.0091
19178THY    CM166766   3.577   0.613   5.708 -1.5435 -0.2416 -0.1439
19178THY    HM166767   3.638   0.678   5.771  1.3466 -0.4736 -2.4232
19178THY    HM266768   3.546   0.668   5.619 -0.2355 -0.8937 -0.4403
19178THY    HM366769   3.640   0.533   5.667  0.7852  0.0372  1.4565
19178THY    CA666770   3.337   0.559   5.733  0.0328 -0.6390 -0.2382
19178THY    HA666771   3.321   0.615   5.641  1.5944 -0.3440  0.7489
19179THY      O66772   5.435   3.377   4.801  0.1574  0.4008  0.3066
19179THY     HO66773   5.419   3.450   4.864  0.8165  1.3723 -0.3665
19179THY    CA166774   5.565   3.349   4.814  0.9902 -0.0480 -0.0489
19179THY    CA266775   5.630   3.265   4.720 -0.3945  0.5367  0.1304
19179THY    CP166776   5.545   3.218   4.597  0.0573 -0.4398 -0.1297
19179THY    HP166777   5.455   3.276   4.577  1.7317  0.5232  3.0447
19179THY    CP266778   5.494   3.081   4.626 -0.7418  0.2876 -0.4460
19179THY    HP266779   5.446   3.043   4.536  0.2156 -1.1171  1.5048
19179THY    HP366780   5.424   3.093   4.710  0.7713  1.6968 -1.0316
19179THY    HP466781   5.573   3.011   4.656 -0.6090 -0.9138 -0.8345
19179THY    CP366782   5.628   3.225   4.467 -0.6283 -0.0999  0.0528
19179THY    HP566783   5.563   3.211   4.379 -0.1055 -0.1496 -2.4451
19179THY    HP666784   5.699   3.142   4.459 -2.1037 -3.4837 -1.0771
19179THY    HP766785   5.685   3.318   4.453 -0.8856 -0.0265  0.2248
19179THY    CA366786   5.767   3.231   4.736  0.2773 -0.4565  0.1651
19179THY    HA366787   5.813   3.158   4.670  0.7071 -0.3599  0.3482
19179THY    CA466788   5.835   3.283   4.852  0.5563 -0.3008 -0.3190
19179THY    HA466789   5.937   3.258   4.878  0.7244 -1.4813 -0.9692
19179THY    CA566790   5.761   3.367   4.943 -1.1069  0.6525 -0.4947
19179THY    CM166791   5.835   3.410   5.066  0.1364  0.1230 -0.1668
19179THY    HM166792   5.835   3.519   5.074 -1.8017  0.7669 -0.1839
19179THY    HM266793   5.940   3.379   5.071 -0.2604  4.4012 -1.4848
19179THY    HM366794   5.788   3.384   5.161 -0.1530 -0.2582 -1.0964
19179THY    CA666795   5.626   3.400   4.924 -0.3836 -0.3990  0.3366
19179THY    HA666796   5.576   3.467   4.993  1.6963  0.7632  0.8041
19180THY      O66797   2.766   6.489   3.864 -0.0048  0.3781 -0.2069
19180THY     HO66798   2.804   6.491   3.954  3.0358 -0.7935  0.6068
19180THY    CA166799   2.636   6.540   3.871 -1.0310  0.4276 -0.1307
19180THY    CA266800   2.527   6.512   3.779 -0.5408  0.0257 -0.6637
19180THY    CP166801   2.554   6.427   3.651  0.4219 -0.5151  0.4211
19180THY    HP166802   2.661   6.411   3.630  1.0142  2.3021  0.2951
19180THY    CP266803   2.495   6.496   3.526  0.2999 -0.3464  0.2520
19180THY    HP266804   2.387   6.493   3.546  0.5187  0.9049 -2.1315
19180THY    HP366805   2.513   6.434   3.437 -2.2449 -1.0743  0.4564
19180THY    HP466806   2.529   6.600   3.529 -0.8862  0.2000  0.6419
19180THY    CP366807   2.509   6.281   3.673 -0.3159 -0.7183 -0.0320
19180THY    HP566808   2.494   6.231   3.577  1.3412 -0.2695 -1.4882
19180THY    HP666809   2.416   6.280   3.732  0.4015  0.4418 -0.0290
19180THY    HP766810   2.589   6.224   3.722 -0.2871 -2.4452 -1.5418
19180THY    CA366811   2.398   6.562   3.811  0.1171 -0.4295 -0.5996
19180THY    HA366812   2.316   6.544   3.743 -0.2754  0.2223 -1.3680
19180THY    CA466813   2.379   6.645   3.923  0.2913  0.7397  0.6399
19180THY    HA466814   2.281   6.684   3.949 -0.3109 -0.5599  0.0421
19180THY    CA566815   2.487   6.673   4.005 -0.1048  0.1022  0.6672
19180THY    CM166816   2.475   6.759   4.130  0.1034  0.2290 -0.8979
19180THY    HM166817   2.483   6.866   4.108  1.2201  1.8598 -0.6142
19180THY    HM266818   2.550   6.731   4.205  1.5078 -0.5248  0.7246
19180THY    HM366819   2.382   6.746   4.187 -0.0478 -0.0539 -1.0718
19180THY    CA666820   2.610   6.622   3.976 -1.2138  0.2052 -0.0979
19180THY    HA666821   2.694   6.649   4.040  1.4896 -1.7455 -3.0784
19181THY      O66822   6.633   3.005   4.770 -0.1988  0.3244 -0.4869
19181THY     HO66823   6.550   2.998   4.820 -1.3693 -1.5294 -0.4298
19181THY    CA166824   6.597   3.054   4.652  0.1813  0.1308 -0.2390
19181THY    CA266825   6.684   3.124   4.555 -0.0179 -1.3174  0.2146
19181THY    CP166826   6.820   3.165   4.606 -0.2183  0.0749 -0.0516
19181THY    HP166827   6.841   3.107   4.696  1.1324  1.3332  2.2224
19181THY    CP266828   6.813   3.312   4.654 -0.0724 -0.0234  0.7852
19181THY    HP266829   6.724   3.333   4.715 -0.6887 -0.8560  0.6389
19181THY    HP366830   6.808   3.376   4.565  1.6727 -1.1989 -0.6214
19181THY    HP466831   6.898   3.342   4.717  0.6302 -1.5162  2.0886
19181THY    CP366832   6.935   3.138   4.504 -0.0528 -0.0359 -0.2729
19181THY    HP566833   6.918   3.198   4.413  1.2361 -0.6495 -0.8113
19181THY    HP666834   6.943   3.034   4.474 -0.4603  1.3307 -0.7227
19181THY    HP766835   7.030   3.170   4.548  0.2513  0.3390 -1.6702
19181THY    CA366836   6.631   3.169   4.437 -0.0998 -0.4367 -0.2558
19181THY    HA366837   6.679   3.238   4.369 -0.6076  1.4342  2.0832
19181THY    CA466838   6.504   3.127   4.402 -0.1764 -0.3154  0.1081
19181THY    HA466839   6.464   3.158   4.305  1.9468 -1.1068  0.5787
19181THY    CA566840   6.426   3.048   4.487 -0.0282 -0.3795 -0.4865
19181THY    CM166841   6.284   3.011   4.453 -0.2829 -0.3232 -0.4576
19181THY    HM166842   6.270   2.902   4.448  1.1374 -1.2508 -0.6212
19181THY    HM266843   6.259   3.053   4.355 -0.9669  0.7923  1.9407
19181THY    HM366844   6.208   3.041   4.528  1.0178  0.5502  0.7857
19181THY    CA666845   6.472   3.017   4.616 -0.1773 -0.5859 -0.0647
19181THY    HA666846   6.407   2.960   4.682 -1.1961 -1.3341  0.1948
19182THY      O66847   4.296   0.932   2.457  0.1772  0.0952 -0.3102
19182THY     HO66848   4.250   1.015   2.435 -0.3624 -0.1247 -0.6661
19182THY    CA166849   4.430   0.951   2.450 -0.2059 -0.1464 -0.5398
19182THY    CA266850   4.518   0.848   2.482 -0.0638 -0.2109  0.6474
19182THY    CP166851   4.468   0.715   2.540 -0.8987  0.0746 -0.4957
19182THY    HP166852   4.369   0.693   2.498 -0.6778  0.3482 -2.1644
19182THY    CP266853   4.443   0.724   2.691  0.2872 -0.0922 -0.0727
19182THY    HP266854   4.446   0.621   2.730  1.8252  2.8106  0.9800
19182THY    HP366855   4.347   0.767   2.724 -0.8557 -0.8291 -1.9082
19182THY    HP466856   4.519   0.784   2.740 -1.2055  1.2415  0.8110
19182THY    CP366857   4.566   0.600   2.510  0.2894 -0.3397 -0.4779
19182THY    HP566858   4.660   0.617   2.565 -0.0740 -0.2536  1.4790
19182THY    HP666859   4.594   0.587   2.404  0.9378 -0.4285  1.3965
19182THY    HP766860   4.530   0.508   2.557 -1.7464  2.0633  1.3969
19182THY    CA366861   4.657   0.885   2.470  0.1250  0.5169  0.3347
19182THY    HA366862   4.729   0.810   2.501  0.4609  1.1229  0.8946
19182THY    CA466863   4.696   1.014   2.421 -0.3225 -0.0010 -0.2972
19182THY    HA466864   4.802   1.035   2.413 -0.5535  0.6604  1.3386
19182THY    CA566865   4.603   1.120   2.399  0.7088  0.6737 -1.0525
19182THY    CM166866   4.650   1.266   2.374  0.2822 -0.0169  0.0879
19182THY    HM166867   4.556   1.322   2.364 -0.2709 -1.9005 -1.0823
19182THY    HM266868   4.698   1.262   2.275 -0.2925 -0.2971 -3.4905
19182THY    HM366869   4.724   1.308   2.444  1.8818 -0.0752 -2.3933
19182THY    CA666870   4.464   1.086   2.409  0.1637 -0.0866 -0.5171
19182THY    HA666871   4.391   1.166   2.402  0.0590 -1.3691 -0.7061
19183THY      O66872   2.763   7.701   7.565  0.3073  0.0403 -0.1091
19183THY     HO66873   2.844   7.649   7.550  0.2841  1.1380 -0.4949
19183THY    CA166874   2.802   7.829   7.561  0.5915  0.6034 -1.5932
19183THY    CA266875   2.717   7.923   7.499  0.0784 -0.3299  0.3241
19183THY    CP166876   2.591   7.872   7.426 -0.3707 -0.3440 -0.1637
19183THY    HP166877   2.612   7.778   7.373 -2.5506 -1.6151 -0.0004
19183THY    CP266878   2.548   7.960   7.304 -0.2409 -0.4241 -0.3038
19183THY    HP266879   2.524   8.062   7.335  2.1272 -1.6174  0.6718
19183THY    HP366880   2.464   7.915   7.249  0.9796 -2.3062 -0.3802
19183THY    HP466881   2.625   7.962   7.227  0.9582  0.7528 -0.0983
19183THY    CP366882   2.470   7.851   7.522  0.8778  0.2352  0.2103
19183THY    HP566883   2.447   7.934   7.589  0.8365  1.2257 -0.5839
19183THY    HP666884   2.475   7.763   7.587  0.1237 -2.1792 -1.7530
19183THY    HP766885   2.382   7.830   7.460  0.8062  0.2528  0.4571
19183THY    CA366886   2.754   8.063   7.506 -0.0752 -0.0078  0.3488
19183THY    HA366887   2.688   8.141   7.469 -0.7401  0.6395  0.1020
19183THY    CA466888   2.876   8.099   7.563  0.2976 -0.2168 -0.1893
19183THY    HA466889   2.912   8.201   7.559 -1.3041 -1.4441  0.3675
19183THY    CA566890   2.962   8.004   7.619  0.1630  0.4227 -0.3433
19183THY    CM166891   3.106   8.046   7.667  0.0015 -0.3674 -0.0141
19183THY    HM166892   3.170   7.958   7.659 -1.9913 -3.4825 -1.3302
19183THY    HM266893   3.100   8.082   7.771 -0.0150  0.8873 -3.3412
19183THY    HM366894   3.160   8.122   7.609  1.6182  0.5735 -0.3841
19183THY    CA666895   2.924   7.866   7.618  0.5116  0.0230 -0.2690
19183THY    HA666896   2.987   7.788   7.659 -0.3166 -1.6186 -1.8902
19184THY      O66897   1.580   5.365   5.393  0.1945 -0.6059  0.1464
19184THY     HO66898   1.571   5.358   5.489  2.0129 -0.5187 -2.1688
19184THY    CA166899   1.636   5.485   5.383 -0.3471  0.1540  0.4397
19184THY    CA266900   1.606   5.574   5.277  0.3840  0.2581  0.6451
19184THY    CP166901   1.504   5.529   5.169 -0.0066 -0.4907  0.1671
19184THY    HP166902   1.461   5.430   5.186  0.1453  0.3351  0.2377
19184THY    CP266903   1.580   5.511   5.037 -0.6224  0.3242 -0.3119
19184THY    HP266904   1.509   5.463   4.969 -0.8411  0.1309  0.2807
19184THY    HP366905   1.674   5.458   5.056 -0.0140  2.0497  1.2565
19184THY    HP466906   1.619   5.609   5.006  0.4798 -0.1393 -0.8799
19184THY    CP366907   1.385   5.627   5.164 -0.3311 -0.0250  0.1492
19184THY    HP566908   1.409   5.734   5.155 -1.9066 -0.0243  0.5309
19184THY    HP666909   1.330   5.624   5.259 -0.0123  0.1655  0.3452
19184THY    HP766910   1.309   5.597   5.091 -2.9039  1.6377  2.1818
19184THY    CA366911   1.661   5.703   5.281  0.0509  0.5824  0.5055
19184THY    HA366912   1.635   5.768   5.198 -0.0430 -0.0740 -0.3589
19184THY    CA466913   1.751   5.730   5.381 -0.2501  0.5527 -0.1207
19184THY    HA466914   1.793   5.830   5.390  1.1202  0.6084 -0.6890
19184THY    CA566915   1.767   5.646   5.489 -0.5594  0.5840  0.4255
19184THY    CM166916   1.834   5.710   5.599  0.4526  0.6803 -0.1317
19184THY    HM166917   1.820   5.819   5.603  2.1171 -3.3553  0.4189
19184THY    HM266918   1.941   5.699   5.578  0.3945 -0.3823  1.0572
19184THY    HM366919   1.814   5.655   5.691 -2.1863 -0.0049 -0.4602
19184THY    CA666920   1.711   5.518   5.494  0.0517  0.7048  0.4037
19184THY    HA666921   1.726   5.470   5.591  1.7461 -0.5221 -1.7038
19185THY      O66922   6.668   8.174   7.337  0.2253 -0.2038 -0.1153
19185THY     HO66923   6.759   8.207   7.340  0.3551  0.1262 -0.4859
19185THY    CA166924   6.658   8.052   7.396  0.1226 -0.4060 -1.2475
19185THY    CA266925   6.557   7.964   7.367  0.5999 -0.2989  0.0337
19185THY    CP166926   6.444   8.012   7.275 -0.1433 -0.6754  0.1042
19185THY    HP166927   6.423   8.118   7.289 -1.3478  0.3203 -0.2460
19185THY    CP266928   6.314   7.941   7.313 -0.0014  0.5357 -0.0073
19185THY    HP266929   6.308   7.923   7.421  2.3313  0.4744 -1.5901
19185THY    HP366930   6.292   7.847   7.261 -4.2740 -0.7936  1.4849
19185THY    HP466931   6.230   8.003   7.279  0.0408 -0.1623 -0.3273
19185THY    CP366932   6.479   7.985   7.133  0.1779 -0.9129  0.1071
19185THY    HP566933   6.561   8.049   7.097 -0.7991  1.8379  3.1486
19185THY    HP666934   6.398   8.013   7.066  2.7830 -3.4043  2.3452
19185THY    HP766935   6.511   7.881   7.117 -0.1485 -1.3323  0.0722
19185THY    CA366936   6.568   7.836   7.419  0.0617 -0.9594 -0.3935
19185THY    HA366937   6.501   7.756   7.389 -0.5910  0.3511 -0.3703
19185THY    CA466938   6.677   7.812   7.509 -0.2259  0.6260  0.3783
19185THY    HA466939   6.683   7.714   7.557 -1.8327 -1.9205 -1.0750
19185THY    CA566940   6.764   7.914   7.550 -0.1948  0.2672  0.2425
19185THY    CM166941   6.868   7.885   7.652 -0.3211  0.0557  0.3486
19185THY    HM166942   6.847   7.928   7.751 -0.8096  0.3526 -0.5451
19185THY    HM266943   6.964   7.934   7.632 -0.1100 -0.6710 -0.3363
19185THY    HM366944   6.894   7.781   7.671  1.2604 -1.7138  0.3839
19185THY    CA666945   6.759   8.037   7.496 -0.1730  1.0143 -0.0902
19185THY    HA666946   6.837   8.111   7.511  0.8712 -2.2460 -0.4042
19186THY      O66947   8.322   7.742   4.598  0.0438 -0.3869 -0.5474
19186THY     HO66948   8.316   7.779   4.508 -3.8576  0.0225  0.3122
19186THY    CA166949   8.244   7.627   4.584  0.0338 -0.1792 -0.0422
19186THY    CA266950   8.183   7.568   4.698 -0.0514 -0.1375  0.0178
19186THY    CP166951   8.196   7.635   4.829  0.5548  0.5796 -0.0700
19186THY    HP166952   8.231   7.737   4.809  0.3050  1.0952  0.1191
19186THY    CP266953   8.282   7.557   4.924 -0.3881  0.0523 -0.0332
19186THY    HP266954   8.259   7.576   5.029 -0.3967  0.0477 -0.0199
19186THY    HP366955   8.387   7.584   4.904  0.1541  1.5043 -0.9669
19186THY    HP466956   8.267   7.450   4.909 -0.2630  3.1059 -0.5693
19186THY    CP366957   8.062   7.656   4.905 -0.1616 -0.4226 -1.0523
19186THY    HP566958   8.074   7.737   4.979  0.4678 -1.0445 -0.5655
19186THY    HP666959   8.036   7.561   4.954 -2.6530  1.0724  0.2896
19186THY    HP766960   7.970   7.681   4.851  0.3783 -1.4829 -1.3376
19186THY    CA366961   8.125   7.447   4.688  0.1387  0.4286  1.3573
19186THY    HA366962   8.066   7.391   4.760  1.1674  0.7652  0.6654
19186THY    CA466963   8.120   7.389   4.555  0.7772  0.1882 -0.4269
19186THY    HA466964   8.071   7.294   4.535  0.9111 -0.6719 -0.3295
19186THY    CA566965   8.174   7.451   4.444  0.1853  0.5805  0.8969
19186THY    CM166966   8.175   7.385   4.306 -0.3889 -0.1705  0.6487
19186THY    HM166967   8.238   7.443   4.237  0.7511  0.3019  0.0176
19186THY    HM266968   8.075   7.366   4.267  0.1805 -1.1278 -0.5431
19186THY    HM366969   8.236   7.293   4.310 -0.4964 -0.3492  0.5688
19186THY    CA666970   8.232   7.570   4.459  0.2016 -0.2509 -0.9352
19186THY    HA666971   8.277   7.622   4.375  0.5539  1.4258  1.6413
19187THY      O66972   1.356   2.254   2.433  0.3807  0.8506  0.2866
19187THY     HO66973   1.353   2.340   2.479 -1.1702  2.5726 -0.6197
19187THY    CA166974   1.412   2.176   2.533 -0.5967  0.0969  0.5446
19187THY    CA266975   1.500   2.069   2.500 -0.1397 -0.3262 -0.0421
19187THY    CP166976   1.522   2.032   2.348  0.0756  0.1021  0.3052
19187THY    HP166977   1.449   2.091   2.291 -1.6825  3.0448  1.1605
19187THY    CP266978   1.492   1.884   2.310 -0.4360 -0.5901  0.4823
19187THY    HP266979   1.517   1.809   2.386  0.6037  1.0460  2.3865
19187THY    HP366980   1.548   1.863   2.218  1.4452  0.6418 -0.1873
19187THY    HP466981   1.388   1.860   2.285 -0.6538  0.2842  0.4830
19187THY    CP366982   1.669   2.063   2.301  0.1521  0.3220 -0.5900
19187THY    HP566983   1.672   2.172   2.309  2.5569  1.7475 -0.7001
19187THY    HP666984   1.696   2.045   2.196  0.6616  0.1565  1.0373
19187THY    HP766985   1.745   2.023   2.369  0.8854 -0.1027  0.0653
19187THY    CA366986   1.558   1.996   2.605  0.6197  0.2050  0.6133
19187THY    HA366987   1.619   1.906   2.592  0.3442  0.7805  0.3375
19187THY    CA466988   1.521   2.030   2.738 -0.5672 -0.3929 -0.0250
19187THY    HA466989   1.576   1.978   2.816  1.3247 -1.2317  0.6766
19187THY    CA566990   1.432   2.136   2.768 -0.6641  0.5873 -0.2693
19187THY    CM166991   1.393   2.150   2.911  0.3128 -0.2759  0.1244
19187THY    HM166992   1.400   2.055   2.964 -1.3955 -0.8747 -0.3829
19187THY    HM266993   1.292   2.194   2.911  0.6563 -1.1142  0.9465
19187THY    HM366994   1.458   2.220   2.965 -1.3310  1.9280  0.0400
19187THY    CA666995   1.375   2.211   2.666 -0.0975  0.2928 -0.1042
19187THY    HA666996   1.300   2.286   2.694  0.0743  1.8208 -0.4636
19188THY      O66997   1.410   5.080   2.607 -0.2502 -0.4752  0.2658
19188THY     HO66998   1.500   5.090   2.641  0.4941 -2.2680 -0.0811
19188THY    CA166999   1.402   4.951   2.583 -0.1190 -0.3876 -0.5874
19188THY    CA267000   1.280   4.890   2.552  0.4348  0.7892  0.4987
19188THY    CP167001   1.149   4.977   2.540 -0.0123 -0.0928 -0.5795
19188THY    HP167002   1.176   5.083   2.548 -1.2580 -1.5876 -0.1003
19188THY    CP267003   1.070   4.951   2.670 -0.2999 -0.1808 -0.7273
19188THY    HP267004   1.015   4.856   2.663 -1.3322 -0.0080 -0.1587
19188THY    HP367005   0.993   5.028   2.680 -0.4912  1.7386 -1.1207
19188THY    HP467006   1.127   4.952   2.763 -0.7664  0.1508 -2.2396
19188THY    CP367007   1.073   4.960   2.405 -0.4060  0.5284 -0.6931
19188THY    HP567008   1.149   4.940   2.328 -0.1904 -0.1201  2.1493
19188THY    HP667009   1.009   5.044   2.377  1.0436 -2.0882 -0.3594
19188THY    HP767010   1.011   4.870   2.416 -1.0596  2.9496 -0.0310
19188THY    CA367011   1.279   4.752   2.525  0.0773 -0.1899 -0.2255
19188THY    HA367012   1.179   4.717   2.499  0.2920 -2.2896  0.5855
19188THY    CA467013   1.394   4.680   2.527  0.7891  0.0454 -0.1029
19188THY    HA467014   1.397   4.576   2.498 -0.0084  0.7767 -0.3463
19188THY    CA567015   1.515   4.745   2.558 -0.2628  0.2205 -0.6615
19188THY    CM167016   1.644   4.658   2.548  0.4337 -0.6225 -0.0804
19188THY    HM167017   1.688   4.650   2.648  0.5029 -0.5449  1.1089
19188THY    HM267018   1.711   4.701   2.473 -1.7656 -1.3180  2.3745
19188THY    HM367019   1.627   4.552   2.528 -0.1103  1.9516 -0.5645
19188THY    CA667020   1.519   4.877   2.596 -0.7035  0.3286 -0.4542
19188THY    HA667021   1.610   4.922   2.636 -1.3587  1.2595  0.0701
19189THY      O67022   6.023   4.180   5.741 -0.0382  0.3378  0.2312
19189THY     HO67023   6.050   4.123   5.815 -1.5718  1.3987  0.8149
19189THY    CA167024   5.919   4.251   5.794 -0.5501  0.3428  0.1254
19189THY    CA267025   5.902   4.388   5.761  0.4751  0.0327 -0.2582
19189THY    CP167026   5.987   4.456   5.656 -0.3507 -0.3981 -0.3007
19189THY    HP167027   6.060   4.386   5.613 -0.7395  1.3410 -1.8510
19189THY    CP267028   6.071   4.571   5.719  0.0779 -0.4484 -0.5814
19189THY    HP267029   6.135   4.532   5.799  0.1949 -0.3537 -0.2077
19189THY    HP367030   6.017   4.656   5.762 -0.1078  0.3028 -1.0711
19189THY    HP467031   6.137   4.611   5.641  2.0896  0.9429 -1.0063
19189THY    CP367032   5.896   4.514   5.550  0.2697 -0.5881 -0.2083
19189THY    HP567033   5.820   4.441   5.518  0.8022  2.2379 -2.1263
19189THY    HP667034   5.961   4.546   5.467 -0.0947 -1.4913 -1.7095
19189THY    HP767035   5.833   4.590   5.599 -1.9316  1.2273 -3.0189
19189THY    CA367036   5.800   4.459   5.836 -0.0547 -0.3049  0.3110
19189THY    HA367037   5.804   4.567   5.832 -0.7579  1.1982  0.4211
19189THY    CA467038   5.721   4.395   5.934 -0.4077 -0.4892 -0.1224
19189THY    HA467039   5.644   4.449   5.988 -0.8125 -0.1389 -1.0270
19189THY    CA567040   5.730   4.258   5.945  0.4000 -0.5464  0.0701
19189THY    CM167041   5.624   4.185   6.029  0.1255 -0.5508 -0.0893
19189THY    HM167042   5.520   4.209   6.003 -0.5848  2.3876  0.3838
19189THY    HM267043   5.623   4.224   6.131 -0.9210 -0.4779 -0.2771
19189THY    HM367044   5.625   4.076   6.019  0.4855 -3.1423  0.0670
19189THY    CA667045   5.834   4.184   5.885  0.6268  0.1623 -0.1212
19189THY    HA667046   5.844   4.077   5.902  1.5400 -2.8504 -0.6057
19190THY      O67047   6.904   7.918   3.177  0.0037 -0.2004 -0.3743
19190THY     HO67048   6.977   7.947   3.120  2.1202  0.1148 -4.3854
19190THY    CA167049   6.855   8.030   3.242 -0.3250  0.4654 -0.1586
19190THY    CA267050   6.717   8.038   3.277 -1.1423 -0.3716  0.8669
19190THY    CP167051   6.633   7.905   3.269  0.1878 -0.6065  0.3894
19190THY    HP167052   6.536   7.919   3.319  1.2115  1.4498  0.5375
19190THY    CP267053   6.685   7.792   3.361 -0.5987  0.3759 -0.0275
19190THY    HP267054   6.734   7.832   3.451 -1.4664  0.8564 -0.0241
19190THY    HP367055   6.749   7.720   3.310  0.5612 -2.6507  2.9357
19190THY    HP467056   6.603   7.723   3.383 -1.5032  0.3647  1.0169
19190THY    CP367057   6.607   7.850   3.127 -0.0494  0.7243  0.4287
19190THY    HP567058   6.553   7.756   3.143  2.1832  2.0186 -0.7099
19190THY    HP667059   6.699   7.841   3.067 -0.6240  0.0154 -0.9580
19190THY    HP767060   6.551   7.922   3.066  0.5173  0.2215  0.4612
19190THY    CA367061   6.667   8.167   3.323  0.5605  0.8729 -0.2320
19190THY    HA367062   6.564   8.173   3.357 -0.4674 -1.0592 -3.7834
19190THY    CA467063   6.752   8.276   3.333  0.2714  0.0444 -0.6792
19190THY    HA467064   6.707   8.368   3.370  1.9091  0.3336  0.0433
19190THY    CA567065   6.889   8.266   3.290 -0.2794 -0.1409  0.2173
19190THY    CM167066   6.988   8.378   3.313  0.0742  1.0115 -1.1584
19190THY    HM167067   7.083   8.332   3.342 -0.7407  2.5556 -1.9356
19190THY    HM267068   6.963   8.445   3.397  1.2059 -0.6106  1.4594
19190THY    HM367069   6.999   8.444   3.226  1.8612  0.9475 -1.4952
19190THY    CA667070   6.941   8.142   3.242  0.5879 -0.2362  0.3488
19190THY    HA667071   7.046   8.136   3.217  0.6635  0.1727 -0.0144
19191THY      O67072   4.634   1.158   6.309  0.2048 -0.0684  0.1693
19191THY     HO67073   4.639   1.099   6.232 -0.3373 -0.7996  1.0394
19191THY    CA167074   4.511   1.217   6.305  0.4638 -0.2467  0.4118
19191THY    CA267075   4.470   1.329   6.382  0.1463  0.1601  0.5133
19191THY    CP167076   4.569   1.380   6.491  0.7469  0.2687 -0.3580
19191THY    HP167077   4.671   1.346   6.472  0.5218 -1.9008  0.0757
19191THY    CP267078   4.521   1.330   6.630 -0.0340  0.3942 -0.6525
19191THY    HP267079   4.536   1.222   6.629 -2.3652  3.0920 -1.1009
19191THY    HP367080   4.414   1.348   6.645 -0.4196 -2.7728  0.4541
19191THY    HP467081   4.587   1.380   6.702 -2.5232  1.0236  2.0081
19191THY    CP367082   4.570   1.537   6.494  0.4347 -0.5914 -0.1796
19191THY    HP567083   4.471   1.576   6.519  0.4761  2.3586 -1.6618
19191THY    HP667084   4.606   1.592   6.406  0.7214  0.2560  1.0255
19191THY    HP767085   4.636   1.561   6.578  2.6306 -2.3988  0.5077
19191THY    CA367086   4.339   1.382   6.356 -0.0176 -0.0410  0.3238
19191THY    HA367087   4.320   1.465   6.424 -1.0877 -1.8337  1.6046
19191THY    CA467088   4.256   1.330   6.257  0.2384 -0.2836 -0.1033
19191THY    HA467089   4.160   1.376   6.234 -0.1385  1.0730 -0.1786
19191THY    CA567090   4.299   1.217   6.188 -0.3039  0.4222  0.3302
19191THY    CM167091   4.219   1.165   6.077  0.4845 -0.2609  0.2536
19191THY    HM167092   4.247   1.195   5.975 -1.9723 -1.2692 -0.6388
19191THY    HM267093   4.115   1.200   6.086  0.0115 -0.4830 -1.0392
19191THY    HM367094   4.220   1.055   6.081  1.0426  0.3497  0.2784
19191THY    CA667095   4.421   1.161   6.207  0.4307 -0.0473 -0.0973
19191THY    HA667096   4.462   1.079   6.148  0.6704  0.8994 -0.6739
19192THY      O67097   8.224   4.210   6.819 -0.0047 -0.9030  0.7384
19192THY     HO67098   8.187   4.295   6.790  1.1140  0.4782  1.7398
19192THY    CA167099   8.359   4.224   6.833  0.1880 -0.6100  0.5511
19192THY    CA267100   8.438   4.132   6.904  0.3409 -0.2382 -0.1946
19192THY    CP167101   8.384   4.037   7.007 -0.1033  0.0452 -0.1453
19192THY    HP167102   8.275   4.041   6.995 -0.1312  0.6470  1.2599
19192THY    CP267103   8.413   4.084   7.143 -0.2782 -0.0282  0.2885
19192THY    HP267104   8.367   4.179   7.172  0.2623  0.2076  0.4850
19192THY    HP367105   8.518   4.111   7.161  0.6615  0.1591 -3.0720
19192THY    HP467106   8.403   4.006   7.219  0.0176 -2.5863 -2.4211
19192THY    CP367107   8.430   3.889   6.978 -0.7420  0.6160  0.5894
19192THY    HP567108   8.416   3.857   6.874 -0.5923  0.6935  0.2756
19192THY    HP667109   8.359   3.816   7.019  0.7674 -0.1144 -1.3870
19192THY    HP767110   8.533   3.875   7.012 -0.3569 -0.7143  0.0721
19192THY    CA367111   8.579   4.144   6.905  0.0908 -0.3777  0.0187
19192THY    HA367112   8.639   4.082   6.970 -0.1199 -2.1657 -2.1839
19192THY    CA467113   8.640   4.250   6.836  0.3074 -0.1615  0.3280
19192THY    HA467114   8.747   4.262   6.829  0.2575 -1.6149  0.1178
19192THY    CA567115   8.559   4.340   6.763  1.4567  0.0418  0.1229
19192THY    CM167116   8.622   4.440   6.672 -0.4669 -0.0212  0.0864
19192THY    HM167117   8.553   4.523   6.691  0.7016  0.9141  0.8844
19192THY    HM267118   8.599   4.406   6.571  0.5347  0.8628 -3.5967
19192THY    HM367119   8.731   4.452   6.676 -0.5507 -0.9081  1.3695
19192THY    CA667120   8.417   4.323   6.765  0.1052 -0.0245 -0.2107
19192THY    HA667121   8.358   4.396   6.710  1.9925  0.3420  1.6813
19193THY      O67122   3.913   8.504   7.491 -0.1784  0.0842  0.0300
19193THY     HO67123   3.830   8.505   7.440  0.7490 -1.5687 -1.6112
19193THY    CA167124   3.961   8.378   7.472  0.1513  1.0421 -0.5287
19193THY    CA267125   4.038   8.310   7.565  0.0716  0.9424 -0.3813
19193THY    CP167126   4.046   8.381   7.703  0.3665  0.5464 -0.4161
19193THY    HP167127   4.048   8.490   7.694  1.1974 -1.2777 -0.5620
19193THY    CP267128   4.164   8.343   7.791 -0.9294  0.2268 -0.4072
19193THY    HP267129   4.251   8.341   7.725 -0.5794  0.6932 -0.8494
19193THY    HP367130   4.145   8.238   7.819 -1.1473  0.3437 -0.3387
19193THY    HP467131   4.169   8.416   7.873  0.3883 -1.0603  1.0171
19193THY    CP367132   3.929   8.351   7.795  0.7998  0.1644  0.0045
19193THY    HP567133   3.946   8.246   7.822  1.6496 -3.2721 -0.8867
19193THY    HP667134   3.838   8.358   7.733 -0.2278  1.7482  1.3311
19193THY    HP767135   3.927   8.427   7.873  0.3905  0.4886 -0.3323
19193THY    CA367136   4.098   8.185   7.535  0.9914  0.3197  0.2554
19193THY    HA367137   4.157   8.140   7.615  1.3869 -0.1357 -0.0392
19193THY    CA467138   4.079   8.134   7.406  0.2667  0.2781 -0.0632
19193THY    HA467139   4.134   8.049   7.367  0.8369 -1.7487  1.1690
19193THY    CA567140   3.985   8.190   7.319  0.3739 -0.3100 -1.0620
19193THY    CM167141   3.937   8.123   7.184  0.2445 -0.4633 -0.0375
19193THY    HM167142   3.829   8.112   7.198 -0.1086 -1.9695  1.1775
19193THY    HM267143   3.977   8.021   7.177 -1.4429  3.0427 -1.0996
19193THY    HM367144   3.960   8.178   7.092 -4.2851 -0.1765  2.8060
19193THY    CA667145   3.930   8.309   7.357 -0.7765 -0.4741  0.2167
19193THY    HA667146   3.857   8.347   7.286 -1.3869  0.4044  0.7325
19194THY      O67147   1.598   4.197   2.407 -0.4701 -0.2194  0.7030
19194THY     HO67148   1.564   4.135   2.473 -1.7757 -0.9017  0.6691
19194THY    CA167149   1.716   4.133   2.357  0.3560  0.1251 -0.6965
19194THY    CA267150   1.773   4.160   2.232 -0.3378 -0.1311  0.0633
19194THY    CP167151   1.704   4.259   2.133 -0.1388 -0.2380 -0.4896
19194THY    HP167152   1.599   4.272   2.158  0.2105  2.4940 -2.1357
19194THY    CP267153   1.719   4.232   1.987  0.1768  0.5537 -0.4574
19194THY    HP267154   1.670   4.312   1.930 -1.4249  0.9213 -1.1288
19194THY    HP367155   1.681   4.132   1.960  3.3148  1.1124 -1.9434
19194THY    HP467156   1.821   4.228   1.947  0.3261  0.8270  0.4230
19194THY    CP367157   1.756   4.399   2.176 -0.5356  0.2715  0.4469
19194THY    HP567158   1.749   4.407   2.285  0.8869  0.3643  0.7857
19194THY    HP667159   1.687   4.474   2.136 -1.4721 -0.6844 -0.8785
19194THY    HP767160   1.861   4.419   2.150 -0.4966  0.9207  1.1122
19194THY    CA367161   1.896   4.097   2.196  0.2287  0.4034  0.3545
19194THY    HA367162   1.942   4.098   2.098 -0.0310  0.2770  0.0779
19194THY    CA467163   1.950   4.001   2.288  0.0003 -0.2342 -0.0736
19194THY    HA467164   2.042   3.948   2.266 -1.1421 -2.0998 -1.3832
19194THY    CA567165   1.891   3.973   2.412 -0.6936  0.3676  0.5552
19194THY    CM167166   1.957   3.884   2.515 -0.3581 -0.2354  0.2296
19194THY    HM167167   2.057   3.850   2.484 -0.9800  0.6955 -2.7086
19194THY    HM267168   1.894   3.799   2.545 -2.5362 -1.5299  1.3091
19194THY    HM367169   1.969   3.942   2.607 -1.4569  1.1576 -1.6215
19194THY    CA667170   1.772   4.039   2.450  0.7965  0.4891  0.4829
19194THY    HA667171   1.729   4.025   2.548 -3.1212 -0.6430  2.8943
19195THY      O67172   7.982   4.532   2.567  0.2789  0.5727  0.9571
19195THY     HO67173   7.922   4.579   2.627  1.1062  0.2481  2.4831
19195THY    CA167174   7.917   4.529   2.449  0.7216 -0.0280 -0.6700
19195THY    CA267175   7.941   4.423   2.355 -0.9608 -0.3198 -0.2813
19195THY    CP167176   8.019   4.299   2.407  0.0247 -0.7175 -0.0521
19195THY    HP167177   8.041   4.302   2.514  1.5942 -0.9968 -0.7820
19195THY    CP267178   8.156   4.280   2.337 -0.0741 -0.6331 -0.1652
19195THY    HP267179   8.202   4.379   2.338  0.7129 -0.4184 -0.5265
19195THY    HP367180   8.126   4.260   2.233  2.0648 -0.9950 -1.8708
19195THY    HP467181   8.214   4.200   2.385  0.6645  3.5934  2.6011
19195THY    CP367182   7.934   4.167   2.388 -0.7275 -0.0725 -0.5068
19195THY    HP567183   7.959   4.145   2.283  4.2577  0.7702 -0.1418
19195THY    HP667184   7.827   4.165   2.413 -0.7291  0.1960  1.3416
19195THY    HP767185   7.985   4.086   2.441  1.7940 -0.0706  0.9877
19195THY    CA367186   7.899   4.441   2.221 -1.0259  0.1357  0.1258
19195THY    HA367187   7.913   4.363   2.147  1.5247 -0.1797  0.7716
19195THY    CA467188   7.827   4.556   2.189 -0.5529  0.4778 -0.0501
19195THY    HA467189   7.792   4.570   2.087 -1.9814  0.9909  0.2859
19195THY    CA567190   7.799   4.658   2.277 -1.1230 -0.3973  0.9509
19195THY    CM167191   7.725   4.782   2.230 -0.7082  0.1191  0.1093
19195THY    HM167192   7.796   4.864   2.218  1.6671  3.6181 -1.1998
19195THY    HM267193   7.671   4.812   2.321 -1.7137 -0.3094 -0.3197
19195THY    HM367194   7.651   4.764   2.151 -0.8829  0.3721 -0.3140
19195THY    CA667195   7.855   4.646   2.405  0.5428  0.5901  0.1598
19195THY    HA667196   7.841   4.728   2.475  1.0941 -0.5834  1.2995
19196THY      O67197   5.811   3.351   6.182  0.3603 -0.0293  0.4496
19196THY     HO67198   5.716   3.344   6.161  0.8666 -3.2511  1.7688
19196THY    CA167199   5.850   3.452   6.108 -0.0982 -0.8706 -0.5802
19196THY    CA267200   5.952   3.435   6.016  0.0341  0.6338 -0.6324
19196THY    CP167201   6.014   3.297   5.983 -0.2690  0.4467  0.1280
19196THY    HP167202   6.019   3.242   6.078  0.3213 -0.9943 -2.4555
19196THY    CP267203   6.154   3.292   5.919 -0.5554  0.0923  0.9080
19196THY    HP267204   6.148   3.304   5.810 -0.2712 -0.1512 -0.8837
19196THY    HP367205   6.202   3.196   5.941 -0.3589 -0.9980  0.7495
19196THY    HP467206   6.216   3.371   5.963  0.9352  0.6768 -0.5289
19196THY    CP367207   5.926   3.232   5.881 -0.0098 -0.9102  0.3145
19196THY    HP567208   5.826   3.205   5.916  0.6577  0.2196 -0.7302
19196THY    HP667209   5.967   3.141   5.837  1.4740 -1.6694  1.3078
19196THY    HP767210   5.924   3.303   5.797  2.5697 -0.8173  0.5838
19196THY    CA367211   5.993   3.550   5.941 -0.3716 -0.6302  0.0469
19196THY    HA367212   6.074   3.546   5.869  0.1118 -0.0344 -1.3648
19196THY    CA467213   5.934   3.670   5.967 -0.1886 -0.1051  0.2746
19196THY    HA467214   5.968   3.753   5.906 -0.6329 -1.4287 -0.4668
19196THY    CA567215   5.821   3.677   6.052  0.0424 -0.0396 -0.5973
19196THY    CM167216   5.738   3.805   6.051  0.6644 -0.1534  0.5071
19196THY    HM167217   5.788   3.897   6.084 -0.3417  1.0673  0.6409
19196THY    HM267218   5.644   3.800   6.108  0.8973  0.3724  1.6367
19196THY    HM367219   5.703   3.824   5.949 -3.0639  0.9933  0.5698
19196THY    CA667220   5.774   3.569   6.121  0.2912  0.4851  0.2291
19196THY    HA667221   5.687   3.569   6.187 -0.5437 -0.5670 -1.0936
19197THY      O67222   6.743   2.561   3.777 -0.3464 -0.0739 -0.0696
19197THY     HO67223   6.779   2.623   3.844 -0.0436 -0.5599  0.2922
19197THY    CA167224   6.636   2.614   3.719 -0.2558 -0.2456 -0.0219
19197THY    CA267225   6.579   2.555   3.607  0.1617 -0.1002  0.4313
19197THY    CP167226   6.640   2.427   3.540  0.0293  0.2406  0.6201
19197THY    HP167227   6.702   2.375   3.615  1.1309 -0.8119  0.3715
19197THY    CP267228   6.709   2.447   3.406 -0.2305 -0.2178  0.0234
19197THY    HP267229   6.752   2.351   3.377  1.9858  0.4147  0.7489
19197THY    HP367230   6.790   2.520   3.422  0.4328 -0.3711 -0.6636
19197THY    HP467231   6.643   2.486   3.328  0.9769  0.1697  3.2044
19197THY    CP367232   6.523   2.330   3.505 -0.1182  0.8323 -0.5927
19197THY    HP567233   6.559   2.226   3.508  0.4176  0.1288 -0.4382
19197THY    HP667234   6.472   2.343   3.409  0.9555  0.4565  1.1089
19197THY    HP767235   6.446   2.328   3.583 -2.1137 -1.0390 -2.6825
19197THY    CA367236   6.463   2.619   3.551 -0.4209 -0.3931  0.1805
19197THY    HA367237   6.416   2.571   3.466 -0.1005 -0.4605 -0.0101
19197THY    CA467238   6.409   2.741   3.607  0.4112 -0.1114  0.3736
19197THY    HA467239   6.317   2.783   3.568  1.2653 -1.0993  1.4270
19197THY    CA567240   6.475   2.796   3.720 -0.4672  0.4511  0.1050
19197THY    CM167241   6.424   2.915   3.784  1.0241  0.1644 -0.2286
19197THY    HM167242   6.491   3.000   3.765 -0.1676 -0.5483  0.5647
19197THY    HM267243   6.411   2.895   3.891 -0.9709 -0.0133 -0.0637
19197THY    HM367244   6.324   2.937   3.747  1.2550 -0.2296  0.1687
19197THY    CA667245   6.587   2.736   3.772  0.3763  0.5858 -0.3918
19197THY    HA667246   6.635   2.780   3.859 -0.7060  0.9622  0.0837
19198THY      O67247   1.564   8.259   7.137 -0.0888 -0.9312 -0.3934
19198THY     HO67248   1.519   8.222   7.059 -1.9869  0.8842 -2.1502
19198THY    CA167249   1.538   8.386   7.147  0.7487  0.2369 -0.3069
19198THY    CA267250   1.643   8.473   7.175  0.4363  0.2943 -0.3547
19198THY    CP167251   1.797   8.430   7.181  0.5854 -0.0666 -0.9746
19198THY    HP167252   1.812   8.323   7.162  0.6454  0.3509 -1.0418
19198THY    CP267253   1.850   8.463   7.320 -0.4925  0.7994 -0.1109
19198THY    HP267254   1.776   8.457   7.401  1.4355  2.6300 -0.3743
19198THY    HP367255   1.886   8.567   7.318  0.6780  0.5248 -0.5153
19198THY    HP467256   1.941   8.405   7.337 -1.5969  1.1945 -1.8127
19198THY    CP367257   1.869   8.506   7.073 -0.2541 -0.2256 -0.6352
19198THY    HP567258   1.852   8.614   7.070  0.2768 -1.4898 -0.5614
19198THY    HP667259   1.832   8.461   6.980  2.5425 -1.3872 -0.7289
19198THY    HP767260   1.976   8.480   7.073  0.1368 -1.5257  0.8284
19198THY    CA367261   1.601   8.605   7.198  0.1943 -0.0332 -0.2628
19198THY    HA367262   1.678   8.673   7.232  0.0839  0.8318 -0.5521
19198THY    CA467263   1.472   8.647   7.168  0.0502  0.0914  0.3191
19198THY    HA467264   1.443   8.751   7.181  0.0346 -1.2176  0.4878
19198THY    CA567265   1.376   8.560   7.122 -0.7368 -0.0999  1.1719
19198THY    CM167266   1.237   8.603   7.098 -0.0979  0.5535 -0.8693
19198THY    HM167267   1.174   8.611   7.188  0.0251  0.7014 -1.5314
19198THY    HM267268   1.179   8.536   7.033 -2.4661  0.5406  1.0363
19198THY    HM367269   1.248   8.696   7.042  0.0955 -0.2267 -1.3579
19198THY    CA667270   1.410   8.424   7.124 -0.5661  1.3609 -0.5511
19198THY    HA667271   1.333   8.355   7.091 -1.8521  2.9032  0.0712
19199THY      O67272   9.265   2.925   2.534 -0.3292  0.2461  0.1600
19199THY     HO67273   9.206   2.849   2.543 -1.0519 -0.5153  0.6146
19199THY    CA167274   9.204   3.016   2.616 -0.1345 -0.1165  0.5556
19199THY    CA267275   9.270   3.127   2.660 -0.9683  0.2665 -0.2967
19199THY    CP167276   9.405   3.162   2.603 -0.2202  0.4407 -0.3073
19199THY    HP167277   9.443   3.082   2.538  1.9124  1.9817 -0.6490
19199THY    CP267278   9.512   3.174   2.715  0.2317  0.0175  0.1843
19199THY    HP267279   9.531   3.081   2.769  0.4917 -1.6279 -0.7698
19199THY    HP367280   9.500   3.261   2.781 -1.8742  2.2069 -1.6439
19199THY    HP467281   9.600   3.188   2.652  0.3082  0.3722  1.4949
19199THY    CP367282   9.408   3.284   2.516 -0.2801 -1.2123 -0.8313
19199THY    HP567283   9.337   3.285   2.433  0.0321 -1.5574  2.3589
19199THY    HP667284   9.508   3.293   2.471  0.4718  0.1149 -2.0180
19199THY    HP767285   9.394   3.374   2.577 -0.8352 -3.2837  0.5760
19199THY    CA367286   9.207   3.212   2.758 -0.1502 -0.6359 -0.1475
19199THY    HA367287   9.247   3.306   2.793  1.5644  1.6303 -1.6170
19199THY    CA467288   9.077   3.175   2.793 -0.2235 -0.4202 -0.7290
19199THY    HA467289   9.025   3.248   2.854 -0.0105 -1.7980  0.6246
19199THY    CA567290   9.020   3.062   2.750  0.1367 -0.2519  0.3730
19199THY    CM167291   8.877   3.035   2.792 -0.2725 -0.0362 -0.2425
19199THY    HM167292   8.822   2.968   2.725 -1.4618 -0.2356  0.8736
19199THY    HM267293   8.816   3.126   2.802  1.7325  1.1640  1.0354
19199THY    HM367294   8.863   2.989   2.890  0.2516  0.5966  0.9119
19199THY    CA667295   9.088   2.970   2.671 -0.0503  0.1340  0.0942
19199THY    HA667296   9.048   2.872   2.648  2.4299  1.7653 -1.4319
19200THY      O67297   0.320   6.591   5.650 -0.2270  0.0321 -0.2694
19200THY     HO67298   0.330   6.507   5.699 -0.3646 -1.7520 -1.3715
19200THY    CA167299   0.317   6.703   5.733 -0.0417 -0.6944  0.0848
19200THY    CA267300   0.305   6.837   5.696  0.3031  0.1070  0.2105
19200THY    CP167301   0.291   6.879   5.548  0.2182 -0.1460 -0.2296
19200THY    HP167302   0.301   6.795   5.479 -0.7520 -0.4802 -0.0829
19200THY    CP267303   0.406   6.975   5.500  1.0213  0.7343  0.1690
19200THY    HP267304   0.390   7.011   5.398  0.9328  0.9016  0.6147
19200THY    HP367305   0.502   6.925   5.517  1.6758  2.8216  1.9484
19200THY    HP467306   0.412   7.059   5.570  1.1345  1.6110 -0.5508
19200THY    CP367307   0.153   6.942   5.528 -0.3186  0.1248  0.3577
19200THY    HP567308   0.152   7.049   5.552  0.4738  1.1848  0.1362
19200THY    HP667309   0.081   6.891   5.591  0.7079  0.8662 -0.2019
19200THY    HP767310   0.127   6.922   5.423  0.1409  0.0183  0.3017
19200THY    CA367311   0.337   6.932   5.794  0.2326  0.1062  0.0275
19200THY    HA367312   0.336   7.039   5.775 -1.2017 -0.8335 -0.1202
19200THY    CA467313   0.362   6.896   5.926 -0.7172 -0.4650 -0.3111
19200THY    HA467314   0.374   6.967   6.007  1.2672  1.0513 -2.2123
19200THY    CA567315   0.348   6.758   5.965 -0.5844  0.2899 -1.0516
19200THY    CM167316   0.343   6.728   6.109 -0.2853 -0.2987 -0.5009
19200THY    HM167317   0.368   6.624   6.134 -0.3152 -0.2875 -0.5055
19200THY    HM267318   0.250   6.754   6.162  0.1013  0.2110 -0.1304
19200THY    HM367319   0.422   6.780   6.166 -1.3833 -0.7745  1.8383
19200THY    CA667320   0.333   6.659   5.869  0.6694  0.5923  0.1927
19200THY    HA667321   0.339   6.553   5.894  0.0305  0.4732  0.1262
19201THY      O67322   3.649   8.563   7.352  0.0801  0.2148  0.3365
19201THY     HO67323   3.644   8.643   7.297  1.5525 -1.7210 -0.8140
19201THY    CA167324   3.625   8.456   7.273 -0.4539 -1.0882  0.2471
19201THY    CA267325   3.553   8.347   7.322  0.0004 -0.6179 -0.9978
19201THY    CP167326   3.494   8.345   7.462 -0.3351 -0.1814 -0.3223
19201THY    HP167327   3.502   8.440   7.515  1.0547 -1.6196  0.4107
19201THY    CP267328   3.580   8.257   7.553 -0.3585 -0.3300 -0.8632
19201THY    HP267329   3.553   8.282   7.656  1.3694 -0.3885  1.5936
19201THY    HP367330   3.679   8.303   7.556 -0.7281 -0.4085 -0.0490
19201THY    HP467331   3.574   8.149   7.531 -0.7764  2.5502 -1.5045
19201THY    CP367332   3.342   8.306   7.459 -0.7599  0.0205 -0.2136
19201THY    HP567333   3.294   8.382   7.396  1.0231 -1.1993 -0.0181
19201THY    HP667334   3.306   8.317   7.561 -0.8459 -0.1635  1.4602
19201THY    HP767335   3.317   8.205   7.425 -0.3015  1.3580 -0.7956
19201THY    CA367336   3.522   8.249   7.232  0.0146 -0.6474 -0.1038
19201THY    HA367337   3.453   8.171   7.264  0.5652 -0.2167 -0.4270
19201THY    CA467338   3.569   8.245   7.105  0.3883 -0.4814  0.1305
19201THY    HA467339   3.530   8.172   7.035 -0.7860 -0.6903  0.9271
19201THY    CA567340   3.653   8.348   7.060 -0.6150  0.2011 -0.3980
19201THY    CM167341   3.707   8.338   6.916  0.1243 -1.2906 -0.3371
19201THY    HM167342   3.769   8.418   6.875  2.0809 -1.4511 -1.8607
19201THY    HM267343   3.616   8.332   6.857 -0.8187 -0.0362  0.8660
19201THY    HM367344   3.763   8.244   6.915 -0.7634  4.2557 -1.2862
19201THY    CA667345   3.687   8.457   7.146  0.7688  0.0276 -0.2822
19201THY    HA667346   3.738   8.546   7.110  0.3769 -0.0683 -0.0943
19202THY      O67347   6.962   8.289   7.366 -0.8009  0.0802  0.4200
19202THY     HO67348   6.966   8.376   7.409  1.9059 -0.6134  0.7515
19202THY    CA167349   7.073   8.291   7.284 -0.5505 -0.7780 -0.1889
19202THY    CA267350   7.129   8.170   7.239 -0.2590  0.5087  0.3438
19202THY    CP167351   7.070   8.032   7.280 -0.3222 -0.6671 -0.2744
19202THY    HP167352   7.019   8.049   7.376  0.7088 -0.5849  3.2636
19202THY    CP267353   7.179   7.934   7.301  0.0502  0.1262 -0.2430
19202THY    HP267354   7.220   7.903   7.204 -1.3255  0.0714 -2.0374
19202THY    HP367355   7.126   7.852   7.350 -0.3948  1.0020  0.5562
19202THY    HP467356   7.260   7.985   7.354 -0.4965 -0.3969  1.2228
19202THY    CP367357   6.967   7.980   7.185 -0.1378 -0.3066  0.2906
19202THY    HP567358   6.920   7.887   7.222 -0.8464  1.3261  1.2479
19202THY    HP667359   7.016   7.960   7.089 -1.0764 -0.9663  1.0697
19202THY    HP767360   6.888   8.055   7.181 -0.4844  1.5656  0.0853
19202THY    CA367361   7.241   8.178   7.159  0.7630 -0.7638  0.7211
19202THY    HA367362   7.301   8.091   7.134  1.6697 -2.2349  1.7115
19202THY    CA467363   7.302   8.297   7.133  0.0252  0.4372  0.3313
19202THY    HA467364   7.394   8.296   7.075  0.3785  0.9727  0.9612
19202THY    CA567365   7.246   8.414   7.176  0.0298  0.3212  0.1815
19202THY    CM167366   7.318   8.544   7.148  0.6545 -0.0030  0.4890
19202THY    HM167367   7.348   8.558   7.043 -0.6411 -0.5157 -0.4168
19202THY    HM267368   7.409   8.544   7.210 -0.0557  1.0663 -0.5591
19202THY    HM367369   7.256   8.630   7.173 -0.7203  1.4765 -0.8698
19202THY    CA667370   7.123   8.417   7.246  0.3662 -0.4001 -0.2077
19202THY    HA667371   7.084   8.511   7.283  5.4308 -0.9153  2.4246
19203THY      O67372   4.989   2.606   3.890  0.0538  0.1276  0.4974
19203THY     HO67373   4.927   2.538   3.921 -3.2687  0.0961  3.2332
19203THY    CA167374   5.109   2.560   3.915  0.1713 -0.1335  0.2412
19203THY    CA267375   5.214   2.643   3.942  0.5341 -0.2940 -0.0207
19203THY    CP167376   5.186   2.788   3.936 -0.3436 -0.1303  0.2495
19203THY    HP167377   5.121   2.821   3.854 -1.9165  1.4545  1.2769
19203THY    CP267378   5.312   2.869   3.896  0.2204  0.5320  0.3954
19203THY    HP267379   5.290   2.975   3.879 -1.9777  1.6057  0.1805
19203THY    HP367380   5.353   2.839   3.800  1.0253  1.6762 -2.5074
19203THY    HP467381   5.391   2.867   3.971  3.3800 -2.5426  1.1949
19203THY    CP367382   5.136   2.842   4.070  0.6419 -0.3799  0.0057
19203THY    HP567383   5.043   2.792   4.100  0.0217 -1.2128  0.6261
19203THY    HP667384   5.123   2.951   4.071  1.7630 -0.8273  0.1641
19203THY    HP767385   5.215   2.825   4.144 -0.7021  1.0000 -0.3419
19203THY    CA367386   5.338   2.593   3.973  0.1898 -0.1271  0.0651
19203THY    HA367387   5.418   2.655   4.011 -1.4848 -0.0373  2.2602
19203THY    CA467388   5.353   2.453   3.980 -0.0559 -0.6769  0.2289
19203THY    HA467389   5.442   2.415   4.030 -0.4513 -0.5657 -0.5713
19203THY    CA567390   5.241   2.370   3.950  0.5488 -0.2372 -0.4981
19203THY    CM167391   5.256   2.219   3.962 -0.2516  0.0744 -0.2265
19203THY    HM167392   5.183   2.181   4.035  1.5035  1.6776 -0.6923
19203THY    HM267393   5.355   2.190   3.998 -0.3570  1.4701  1.0020
19203THY    HM367394   5.246   2.184   3.859  1.4178 -0.5165  0.9110
19203THY    CA667395   5.125   2.420   3.908 -0.8406  0.0284 -0.1441
19203THY    HA667396   5.043   2.353   3.883 -0.0589  0.7446 -1.4049
19204THY      O67397   6.396   1.710   4.697  0.1800  0.7882  0.2579
19204THY     HO67398   6.468   1.773   4.683  0.9248  1.4526 -0.4238
19204THY    CA167399   6.462   1.598   4.729 -0.3015 -0.4399  0.3943
19204THY    CA267400   6.411   1.473   4.698  0.8542  0.8375  0.5209
19204THY    CP167401   6.259   1.455   4.643 -0.1735 -0.5889 -0.0160
19204THY    HP167402   6.204   1.548   4.623 -0.4363 -0.9441 -0.2464
19204THY    CP267403   6.165   1.376   4.732 -0.5715 -0.6093 -0.6186
19204THY    HP267404   6.149   1.429   4.827  0.4965 -0.8498  0.1700
19204THY    HP367405   6.203   1.275   4.755 -0.0866 -0.6608 -0.4492
19204THY    HP467406   6.070   1.373   4.678 -1.0280  0.1276  0.3815
19204THY    CP367407   6.252   1.395   4.503  0.4866 -0.1695  0.0290
19204THY    HP567408   6.289   1.292   4.497  1.8298 -3.1421  0.5629
19204THY    HP667409   6.301   1.470   4.439 -1.4478  0.8132  2.2763
19204THY    HP767410   6.145   1.400   4.476  0.3562  0.5167  1.4166
19204THY    CA367411   6.481   1.358   4.730  0.0031 -0.2215  0.0830
19204THY    HA367412   6.442   1.258   4.714  1.4032  2.1700 -0.9179
19204THY    CA467413   6.600   1.367   4.800  0.4428  0.0712  0.0313
19204THY    HA467414   6.660   1.280   4.824  1.3616 -0.0557  0.6089
19204THY    CA567415   6.653   1.498   4.823  0.1040 -0.1075  0.3567
19204THY    CM167416   6.794   1.520   4.875 -0.2733 -0.5191 -0.2023
19204THY    HM167417   6.869   1.444   4.850  1.5783 -2.1582  1.9994
19204THY    HM267418   6.788   1.527   4.985 -0.1533 -0.5880  1.2947
19204THY    HM367419   6.840   1.615   4.844  0.4949  1.0207 -0.0348
19204THY    CA667420   6.587   1.615   4.781 -0.3016 -0.5477 -0.1185
19204THY    HA667421   6.628   1.712   4.807  0.6389 -0.0387 -0.6411
19205THY      O67422   8.206   6.210   5.860  0.0839  0.4122 -0.2138
19205THY     HO67423   8.249   6.241   5.942 -2.8411  1.1693  2.3740
19205THY    CA167424   8.244   6.302   5.765 -0.0472 -0.4735 -1.0673
19205THY    CA267425   8.272   6.277   5.631 -1.0739 -0.4135  0.0997
19205THY    CP167426   8.256   6.134   5.579  0.0912  0.9103  0.0537
19205THY    HP167427   8.221   6.069   5.660  1.8932  0.3245 -1.7481
19205THY    CP267428   8.387   6.064   5.540 -0.0551 -0.6393  0.0527
19205THY    HP267429   8.364   5.965   5.497 -0.8453 -0.8682  0.3341
19205THY    HP367430   8.435   6.045   5.637 -2.3786  0.2257 -2.0076
19205THY    HP467431   8.445   6.134   5.479  0.4447  2.8362  2.9508
19205THY    CP367432   8.140   6.128   5.475 -0.9756  0.3685 -0.2109
19205THY    HP567433   8.121   6.023   5.452  0.9847  0.3683 -0.5986
19205THY    HP667434   8.163   6.168   5.375 -3.6738 -0.7288 -1.1640
19205THY    HP767435   8.058   6.192   5.509 -1.2782 -1.2058  0.2878
19205THY    CA367436   8.310   6.385   5.543 -0.1559 -0.0882 -0.3586
19205THY    HA367437   8.315   6.366   5.436  1.0549 -0.0690 -0.2296
19205THY    CA467438   8.317   6.512   5.592 -0.2699  0.8441  0.3687
19205THY    HA467439   8.342   6.591   5.522 -1.2610 -0.0473 -0.0746
19205THY    CA567440   8.301   6.538   5.723  0.5541 -0.7794  0.0396
19205THY    CM167441   8.314   6.682   5.773 -0.0809  0.1988 -0.3824
19205THY    HM167442   8.213   6.706   5.809 -0.2695  0.3509 -1.3550
19205THY    HM267443   8.338   6.751   5.692 -1.2348  1.3083  1.4110
19205THY    HM367444   8.384   6.696   5.856 -1.9914  1.6561  1.0495
19205THY    CA667445   8.258   6.438   5.809 -0.5641 -0.1360  0.1678
19205THY    HA667446   8.237   6.457   5.914 -2.6194  0.0469 -2.4637
19206THY      O67447   8.294   6.580   2.746  0.2376  0.3170 -0.3703
19206THY     HO67448   8.240   6.541   2.675 -0.6479  1.8883 -2.1936
19206THY    CA167449   8.310   6.714   2.737 -0.3533 -0.5402  0.1501
19206THY    CA267450   8.379   6.796   2.829  0.3923 -0.4480  0.1692
19206THY    CP167451   8.452   6.720   2.939  0.3021 -0.4852 -0.5346
19206THY    HP167452   8.383   6.638   2.963 -2.0058 -1.5365  0.9879
19206THY    CP267453   8.472   6.808   3.068  0.6411  0.0722 -0.1362
19206THY    HP267454   8.379   6.863   3.089 -0.9540 -0.0051 -2.6488
19206THY    HP367455   8.554   6.880   3.065  0.8796 -0.2789 -0.4199
19206THY    HP467456   8.497   6.754   3.161 -0.0947  1.3334  1.6012
19206THY    CP367457   8.588   6.670   2.895  0.2253  0.3408 -0.6360
19206THY    HP567458   8.613   6.587   2.962  4.2272 -0.2240 -0.1120
19206THY    HP667459   8.653   6.757   2.902  0.1176  0.6057 -0.5755
19206THY    HP767460   8.594   6.637   2.790  0.6893  0.4145 -0.7969
19206THY    CA367461   8.369   6.932   2.819  0.0008 -0.4122 -0.0770
19206THY    HA367462   8.427   6.998   2.883 -0.2645  1.1942 -1.3333
19206THY    CA467463   8.293   6.991   2.713  0.1959 -0.4236  0.5296
19206THY    HA467464   8.287   7.100   2.711  2.2306 -2.4344  0.6867
19206THY    CA567465   8.238   6.909   2.612 -0.1650  0.4464 -0.0278
19206THY    CM167466   8.165   6.968   2.498  0.6536  1.0766 -0.2277
19206THY    HM167467   8.244   6.983   2.423  0.7699  1.3478  0.6036
19206THY    HM267468   8.131   7.068   2.530  0.1161 -0.4978  0.1144
19206THY    HM367469   8.085   6.906   2.458 -0.3140  0.8423  1.1176
19206THY    CA667470   8.240   6.774   2.631 -0.2962  0.2319  0.6414
19206THY    HA667471   8.192   6.702   2.565 -0.8413  1.4686 -0.1698
19207THY      O67472   3.052   2.432   2.583  0.3649  0.2083 -0.4651
19207THY     HO67473   3.047   2.404   2.676 -1.5209  1.0817  2.3481
19207THY    CA167474   3.185   2.432   2.557 -0.0895 -1.0479  0.1052
19207THY    CA267475   3.245   2.509   2.453  0.7512  0.1656 -0.2083
19207THY    CP167476   3.158   2.588   2.353 -0.1261  0.7707 -0.2887
19207THY    HP167477   3.056   2.603   2.391 -0.7005 -1.1207  0.9179
19207THY    CP267478   3.144   2.522   2.212 -0.0124 -0.6867 -0.6227
19207THY    HP267479   3.074   2.439   2.221  0.7978 -1.2305 -1.3796
19207THY    HP367480   3.235   2.482   2.166  0.5391 -0.7793  0.6864
19207THY    HP467481   3.090   2.590   2.144 -1.1981  0.8957  0.0763
19207THY    CP367482   3.214   2.733   2.332  0.1110  0.6256  0.3872
19207THY    HP567483   3.223   2.766   2.436 -0.4989  0.8741 -0.2159
19207THY    HP667484   3.147   2.791   2.266 -0.3457 -0.5800 -1.4249
19207THY    HP767485   3.318   2.735   2.297 -0.5528 -1.4876  0.4911
19207THY    CA367486   3.389   2.516   2.446 -0.2768  0.1902  0.0188
19207THY    HA367487   3.445   2.569   2.369  0.9144 -0.5922 -2.2587
19207THY    CA467488   3.461   2.442   2.542 -0.2436 -0.3800 -0.1736
19207THY    HA467489   3.569   2.450   2.540 -0.1738 -0.4894 -1.0659
19207THY    CA567490   3.403   2.364   2.645 -0.0912  0.1336  0.0695
19207THY    CM167491   3.481   2.272   2.734 -0.0919  0.5046  0.3364
19207THY    HM167492   3.443   2.169   2.727  0.8797 -0.5450  0.0356
19207THY    HM267493   3.483   2.299   2.841  1.0939  0.9648 -1.4261
19207THY    HM367494   3.589   2.270   2.713 -0.2353 -0.2178 -0.1501
19207THY    CA667495   3.263   2.366   2.653  0.5906  0.3174  0.2868
19207THY    HA667496   3.220   2.304   2.732  0.5982  0.3071  0.2684
19208THY      O67497   3.078   6.589   5.677 -0.0086  0.5243 -0.6132
19208THY     HO67498   3.000   6.536   5.653  0.3451  0.2796 -1.0244
19208THY    CA167499   3.055   6.635   5.803  0.1799 -0.1689  0.4078
19208THY    CA267500   3.164   6.669   5.893 -0.6215  0.2141 -0.7140
19208THY    CP167501   3.301   6.646   5.840  0.3918 -0.8048  0.3112
19208THY    HP167502   3.301   6.569   5.762 -0.3455  1.0805 -1.7061
19208THY    CP267503   3.394   6.572   5.951 -0.1533 -0.6261 -0.1904
19208THY    HP267504   3.343   6.478   5.976 -0.6125 -2.0137 -0.3342
19208THY    HP367505   3.409   6.640   6.036  1.5901 -0.2155 -1.0655
19208THY    HP467506   3.491   6.550   5.906  0.8964  0.6055  1.6649
19208THY    CP367507   3.359   6.783   5.806  0.3707  0.2599  0.4792
19208THY    HP567508   3.332   6.856   5.884 -0.3521  1.2144 -0.7526
19208THY    HP667509   3.308   6.818   5.716  0.9365 -0.4085 -0.4040
19208THY    HP767510   3.465   6.773   5.781  0.0769 -0.7188 -0.2824
19208THY    CA367511   3.135   6.735   6.011 -0.4116 -0.1388  0.2783
19208THY    HA367512   3.206   6.747   6.093 -1.8638  1.0264  1.3626
19208THY    CA467513   3.007   6.768   6.050  0.2924 -0.4815 -0.2401
19208THY    HA467514   2.988   6.820   6.143 -1.5013 -1.0010  0.0903
19208THY    CA567515   2.901   6.731   5.961 -0.3644 -0.1232  0.0965
19208THY    CM167516   2.763   6.745   6.011  0.2700 -0.5256 -0.9994
19208THY    HM167517   2.738   6.646   6.053  2.2037 -0.1161 -1.3682
19208THY    HM267518   2.691   6.772   5.934  0.3614 -0.0843  0.6208
19208THY    HM367519   2.742   6.821   6.087 -0.8623 -0.1030 -1.7070
19208THY    CA667520   2.922   6.669   5.840 -0.2250 -0.0168  0.0589
19208THY    HA667521   2.838   6.650   5.775 -1.8665  2.3316 -1.3785
19209THY      O67522   1.687   0.391   6.474  0.6426  0.1024  0.3365
19209THY     HO67523   1.767   0.424   6.429  1.6242  1.2213 -0.4292
19209THY    CA167524   1.662   0.480   6.572 -0.4450 -0.4546  0.8780
19209THY    CA267525   1.576   0.446   6.678  0.0722  0.4667 -0.0797
19209THY    CP167526   1.486   0.324   6.679  0.7235  0.6386 -0.6964
19209THY    HP167527   1.514   0.257   6.597  0.9901 -1.4145  1.7636
19209THY    CP267528   1.336   0.372   6.658 -0.4701 -0.3100 -0.4398
19209THY    HP267529   1.309   0.463   6.712 -2.3805 -1.6685 -0.1314
19209THY    HP367530   1.270   0.291   6.688 -0.6623  0.2346 -0.0857
19209THY    HP467531   1.319   0.392   6.551 -1.7846 -0.1757 -0.7259
19209THY    CP367532   1.508   0.251   6.814 -0.8427 -0.4556 -0.2232
19209THY    HP567533   1.603   0.197   6.821 -0.4987  1.6410  0.5327
19209THY    HP667534   1.426   0.178   6.825 -1.0562  1.0745  0.2105
19209THY    HP767535   1.512   0.314   6.904 -0.6651 -0.1354 -0.6832
19209THY    CA367536   1.559   0.532   6.783 -0.1727  0.4000 -0.1427
19209THY    HA367537   1.490   0.517   6.866  0.4524  0.4172 -3.6682
19209THY    CA467538   1.655   0.638   6.789  0.3505 -0.5204 -0.7576
19209THY    HA467539   1.655   0.701   6.877 -4.5000  0.9781 -2.3382
19209THY    CA567540   1.748   0.665   6.683 -0.0745 -0.2280  0.0579
19209THY    CM167541   1.853   0.779   6.699 -0.2018  0.1263  0.6394
19209THY    HM167542   1.848   0.814   6.803 -2.6543 -0.6292  2.8801
19209THY    HM267543   1.812   0.861   6.639  0.8541  0.4210  1.4044
19209THY    HM367544   1.948   0.743   6.659 -0.3061 -1.3808  1.9474
19209THY    CA667545   1.747   0.588   6.568  0.6557  0.3021 -0.0953
19209THY    HA667546   1.815   0.607   6.486 -0.7452 -0.4111  2.1189
19210THY      O67547   7.331   5.121   2.201 -0.5171 -0.5332 -0.3879
19210THY     HO67548   7.358   5.164   2.284  1.3882 -1.7696  0.9640
19210THY    CA167549   7.400   5.203   2.109 -0.0264  0.6851  0.2122
19210THY    CA267550   7.457   5.154   1.982  0.0893 -0.1959 -0.9445
19210THY    CP167551   7.423   5.008   1.933  1.3875  0.2666  0.8030
19210THY    HP167552   7.349   4.964   2.001 -1.9707 -1.3701  3.5166
19210THY    CP267553   7.543   4.917   1.942  0.2211  0.5417 -0.6452
19210THY    HP267554   7.612   4.949   1.863 -2.4326 -2.0063 -0.8478
19210THY    HP367555   7.514   4.814   1.919 -2.2848 -1.7926  0.4632
19210THY    HP467556   7.584   4.926   2.043  0.1565  0.4427  1.1802
19210THY    CP367557   7.378   5.009   1.792 -0.1472  0.3572 -0.2711
19210THY    HP567558   7.336   4.908   1.777 -1.0623 -0.7942  0.2629
19210THY    HP667559   7.462   5.038   1.728 -0.1660  0.1883 -0.5832
19210THY    HP767560   7.290   5.073   1.778 -2.2801 -0.1403 -3.0969
19210THY    CA367561   7.533   5.250   1.910 -1.3384  0.6164 -0.4930
19210THY    HA367562   7.590   5.218   1.823 -2.9447 -0.5767 -0.2350
19210THY    CA467563   7.555   5.383   1.957  0.2650  0.1863  0.0687
19210THY    HA467564   7.615   5.457   1.905  0.7667  0.2265 -0.3007
19210THY    CA567565   7.510   5.421   2.082 -0.1066 -0.7592 -0.1662
19210THY    CM167566   7.562   5.553   2.138  0.3498 -0.0522 -0.1743
19210THY    HM167567   7.530   5.639   2.079  0.1002 -2.0404 -1.5821
19210THY    HM267568   7.671   5.561   2.125  0.3437  0.5531  1.0557
19210THY    HM367569   7.546   5.555   2.247 -1.0195 -0.2505  1.0184
19210THY    CA667570   7.432   5.327   2.154  0.3807 -0.5673 -0.1512
19210THY    HA667571   7.402   5.352   2.255  0.6844 -0.0586 -1.6964
19211THY      O67572   8.169   0.592   4.191  0.3325  0.7133  0.1941
19211THY     HO67573   8.091   0.650   4.187 -0.1271 -0.9288 -0.4968
19211THY    CA167574   8.274   0.663   4.147 -0.4144 -0.4273 -1.2085
19211THY    CA267575   8.411   0.618   4.159  0.5312  0.7864  0.1140
19211THY    CP167576   8.432   0.480   4.225 -0.1344  0.1961 -0.1123
19211THY    HP167577   8.354   0.441   4.291 -0.6295 -0.1514  0.2866
19211THY    CP267578   8.546   0.488   4.328 -0.2170 -0.2103 -0.2501
19211THY    HP267579   8.569   0.397   4.385 -0.3203 -0.1632 -0.2458
19211THY    HP367580   8.544   0.574   4.396 -2.7565 -0.8118  0.2392
19211THY    HP467581   8.639   0.501   4.270 -0.5301 -1.1197 -1.8058
19211THY    CP367582   8.461   0.361   4.125 -0.4203 -0.6997  0.2477
19211THY    HP567583   8.384   0.331   4.053 -2.2369  0.3010  2.2491
19211THY    HP667584   8.491   0.280   4.193 -1.8180  1.7883  1.6993
19211THY    HP767585   8.548   0.391   4.066  0.3718 -0.2157 -1.0377
19211THY    CA367586   8.517   0.702   4.100 -0.2545  0.5591  0.1369
19211THY    HA367587   8.614   0.655   4.093 -0.5980  0.5625 -0.5937
19211THY    CA467588   8.485   0.824   4.045 -0.2715 -0.2396  0.4329
19211THY    HA467589   8.566   0.879   3.997  1.7955  1.6440 -0.7701
19211THY    CA567590   8.350   0.863   4.042 -0.8111 -0.1566 -0.0592
19211THY    CM167591   8.324   1.005   3.998  0.3681 -0.2372 -0.4349
19211THY    HM167592   8.367   1.085   4.060 -0.4251 -0.1051 -0.1034
19211THY    HM267593   8.216   1.020   3.988  0.3115  0.9814  0.0440
19211THY    HM367594   8.363   1.015   3.896  0.9969  0.1966  2.5931
19211THY    CA667595   8.248   0.790   4.101 -0.4838  0.4143 -0.2762
19211THY    HA667596   8.151   0.837   4.111  0.4628  1.6395  1.5557
19212THY      O67597   3.589   3.524   3.625 -0.3138 -0.7407 -0.1158
19212THY     HO67598   3.671   3.503   3.578  2.0565  2.6353  0.7217
19212THY    CA167599   3.494   3.437   3.580  0.1954  0.0321  0.1634
19212THY    CA267600   3.371   3.443   3.641 -0.7917  0.6174  0.5896
19212THY    CP167601   3.347   3.538   3.763 -0.4682  0.5028 -0.3052
19212THY    HP167602   3.409   3.628   3.748 -1.0027 -0.3339 -0.0672
19212THY    CP267603   3.392   3.461   3.888  0.0089  0.2662 -0.1747
19212THY    HP267604   3.495   3.424   3.877 -0.4962 -1.6446 -1.1176
19212THY    HP367605   3.332   3.373   3.912 -1.8092  1.7723  1.3836
19212THY    HP467606   3.388   3.529   3.974  1.1113 -0.0808  0.3537
19212THY    CP367607   3.200   3.575   3.774  0.0248  0.0947  0.1314
19212THY    HP567608   3.151   3.487   3.817  0.9125  1.7061  0.4044
19212THY    HP667609   3.151   3.597   3.678 -1.7158  0.8343 -0.3382
19212THY    HP767610   3.177   3.661   3.838  0.1446  1.8441 -1.1047
19212THY    CA367611   3.273   3.359   3.605  0.1885  0.2457  0.6369
19212THY    HA367612   3.176   3.354   3.654  0.3016  0.6561  2.0937
19212THY    CA467613   3.296   3.267   3.504 -0.5236  0.4208 -0.7835
19212THY    HA467614   3.222   3.194   3.475  2.1737 -3.0551 -2.4322
19212THY    CA567615   3.411   3.264   3.434 -0.1905 -0.1260 -0.2063
19212THY    CM167616   3.427   3.155   3.325  0.0847 -0.4892 -0.4743
19212THY    HM167617   3.486   3.072   3.367  1.0007 -1.6688 -0.4363
19212THY    HM267618   3.459   3.196   3.229 -3.1833  0.3973  5.2454
19212THY    HM367619   3.333   3.104   3.300  0.4941  1.3272 -2.2278
19212THY    CA667620   3.522   3.340   3.480  0.4471  0.1449 -0.5041
19212THY    HA667621   3.623   3.327   3.443  1.3372  1.3110  2.2890
19213THY      O67622   9.521   8.434   5.771 -0.5344 -0.1553  0.0475
19213THY     HO67623   9.539   8.530   5.764  0.7284  1.9887  0.0072
19213THY    CA167624   9.399   8.416   5.816  0.1064  0.3179 -0.9862
19213THY    CA267625   9.329   8.304   5.782 -0.0714 -0.0817  0.0254
19213THY    CP167626   9.393   8.186   5.704 -0.2135 -0.5160 -0.5532
19213THY    HP167627   9.480   8.228   5.653 -0.3639 -0.0109  0.4079
19213THY    CP267628   9.291   8.121   5.601 -0.3777 -0.1004 -0.4345
19213THY    HP267629   9.341   8.053   5.531 -1.6365  1.4347 -3.1032
19213THY    HP367630   9.230   8.196   5.550 -1.9000 -0.8301 -2.1001
19213THY    HP467631   9.221   8.059   5.659 -2.6373  0.2741  2.2801
19213THY    CP367632   9.421   8.088   5.812 -0.0803 -0.6535  0.1793
19213THY    HP567633   9.468   7.994   5.782 -2.3955  0.2095 -1.3490
19213THY    HP667634   9.325   8.064   5.859  1.0267  1.7905  0.1496
19213THY    HP767635   9.501   8.132   5.873  1.3846 -1.1466 -1.6825
19213THY    CA367636   9.194   8.295   5.832  0.7605 -0.2157  0.1498
19213THY    HA367637   9.132   8.208   5.816  0.1670  0.5446  0.4242
19213THY    CA467638   9.134   8.399   5.901 -0.0683 -0.2747  0.2517
19213THY    HA467639   9.033   8.384   5.939 -0.1528  0.5166  2.4240
19213THY    CA567640   9.203   8.517   5.932  0.2274  0.0387  0.0449
19213THY    CM167641   9.144   8.635   6.005  0.4134  0.0692  0.2343
19213THY    HM167642   9.061   8.678   5.947 -1.7993  2.6716 -0.2426
19213THY    HM267643   9.220   8.711   6.026 -2.9097 -0.3512  4.0439
19213THY    HM367644   9.112   8.596   6.103 -0.5193  0.5632  2.1173
19213THY    CA667645   9.336   8.522   5.884  0.2367 -0.6182  0.0862
19213THY    HA667646   9.395   8.610   5.909  1.3027  1.5940 -1.1663
19214THY      O67647   1.200   2.247   7.615  0.5755  0.1657  0.0476
19214THY     HO67648   1.264   2.303   7.662  1.0891 -0.3954 -0.0521
19214THY    CA167649   1.159   2.173   7.720 -0.1521  1.0132 -1.6833
19214THY    CA267650   1.077   2.060   7.713  0.4781  0.0684  0.7866
19214THY    CP167651   1.013   2.016   7.581 -0.3680  0.2941  0.0996
19214THY    HP167652   1.048   2.075   7.495  0.6710  0.1074 -0.7673
19214THY    CP267653   0.860   2.032   7.590  0.4143 -0.1801 -0.3739
19214THY    HP267654   0.813   1.995   7.682 -1.2096 -0.9930 -0.3812
19214THY    HP367655   0.817   1.963   7.517 -0.7797  1.8011 -1.8483
19214THY    HP467656   0.823   2.134   7.581  1.1585  0.0637 -0.0695
19214THY    CP367657   1.056   1.869   7.545 -0.6986 -0.0321  0.0258
19214THY    HP567658   1.024   1.846   7.443  0.1574 -0.1093 -0.8992
19214THY    HP667659   0.999   1.793   7.600 -0.2543 -0.9912 -1.0342
19214THY    HP767660   1.163   1.846   7.554 -1.0803  1.6698 -1.2779
19214THY    CA367661   1.053   1.978   7.828  0.4349 -0.9102 -0.6565
19214THY    HA367662   0.985   1.893   7.823  0.8478 -1.2619 -0.9698
19214THY    CA467663   1.112   2.018   7.951 -0.8466  0.1796  0.0491
19214THY    HA467664   1.091   1.961   8.040  0.6676 -0.6147 -1.8701
19214THY    CA567665   1.195   2.125   7.957  0.2609 -0.1874  0.0057
19214THY    CM167666   1.245   2.178   8.088 -0.1724 -0.5060  0.0334
19214THY    HM167667   1.248   2.103   8.167  0.1821  1.0742  1.6342
19214THY    HM267668   1.186   2.261   8.128 -1.7354  1.8166 -2.0470
19214THY    HM367669   1.347   2.217   8.079  0.2253  1.6017 -0.3996
19214THY    CA667670   1.217   2.207   7.845  0.7274  0.1096 -0.1839
19214THY    HA667671   1.284   2.292   7.857  1.5456 -0.3999 -0.7303
19215THY      O67672   2.702   3.430   7.233 -0.4319  0.1583 -0.4995
19215THY     HO67673   2.750   3.381   7.302  0.7875  2.0840  3.0441
19215THY    CA167674   2.757   3.552   7.221  0.6461  0.6338 -0.2505
19215THY    CA267675   2.715   3.634   7.110 -0.0602 -0.3863 -0.2193
19215THY    CP167676   2.630   3.579   6.992 -0.8723  0.3283 -0.7252
19215THY    HP167677   2.628   3.470   6.991 -1.3310 -0.4603 -0.7109
19215THY    CP267678   2.701   3.608   6.864  0.1630  0.2226  0.3217
19215THY    HP267679   2.645   3.579   6.775  0.3550  0.3908 -0.5864
19215THY    HP367680   2.800   3.561   6.860 -0.8805  0.7064 -2.0531
19215THY    HP467681   2.723   3.715   6.856 -0.2356 -3.4648  0.2579
19215THY    CP367682   2.498   3.647   6.986 -0.3203 -0.0805  0.2424
19215THY    HP567683   2.497   3.755   6.969 -1.5185 -1.7112  0.0199
19215THY    HP667684   2.442   3.617   7.075 -1.2725 -1.1751 -1.4352
19215THY    HP767685   2.446   3.603   6.900 -1.8339 -0.0537  1.8677
19215THY    CA367686   2.757   3.770   7.110  0.0626  1.0601 -0.0355
19215THY    HA367687   2.707   3.836   7.040  1.7370  0.8235  1.0404
19215THY    CA467688   2.852   3.808   7.203 -0.2104  0.3968  0.5860
19215THY    HA467689   2.885   3.911   7.193  1.2421 -1.6699 -0.0208
19215THY    CA567690   2.901   3.725   7.309 -0.6387  0.3397  0.1819
19215THY    CM167691   3.007   3.766   7.411  0.3455 -0.4846 -0.2876
19215THY    HM167692   2.975   3.869   7.425  1.2116 -0.9347  0.0552
19215THY    HM267693   3.110   3.757   7.373  0.0383 -1.8482  1.5264
19215THY    HM367694   2.987   3.703   7.499 -0.6250 -0.4172  0.1025
19215THY    CA667695   2.843   3.598   7.321 -0.3716 -0.1094 -0.2714
19215THY    HA667696   2.880   3.528   7.396 -2.3052  0.0163 -1.2101
19216THY      O67697   4.368   3.880   2.662 -0.7795 -0.2680 -0.4572
19216THY     HO67698   4.455   3.838   2.658  0.6634  0.5408  2.2580
19216THY    CA167699   4.386   3.985   2.747  0.2482 -0.6664  1.5618
19216THY    CA267700   4.280   4.077   2.771  0.1100 -0.1064 -0.6673
19216THY    CP167701   4.149   4.046   2.705 -0.2527 -0.1269  0.3331
19216THY    HP167702   4.144   3.943   2.669  2.6975  0.7263 -0.1883
19216THY    CP267703   4.138   4.137   2.584  0.3123 -0.0072  0.3461
19216THY    HP267704   4.040   4.122   2.537 -0.4795  2.0607 -1.5879
19216THY    HP367705   4.215   4.104   2.514 -0.9335 -1.0898 -0.3547
19216THY    HP467706   4.157   4.243   2.604  0.5865 -1.1333  0.5206
19216THY    CP367707   4.036   4.069   2.806 -0.1230 -0.3435 -0.2623
19216THY    HP567708   4.042   4.175   2.833  0.7014 -1.0508 -0.1159
19216THY    HP667709   4.050   4.011   2.897  0.9386  1.2207  2.2672
19216THY    HP767710   3.945   4.052   2.748 -0.0572 -0.8539  0.9589
19216THY    CA367711   4.315   4.195   2.846  0.1683  0.1708  0.3659
19216THY    HA367712   4.242   4.274   2.860  1.1031 -2.4643  1.8066
19216THY    CA467713   4.449   4.212   2.890  0.1549 -0.0560  0.1465
19216THY    HA467714   4.479   4.298   2.948 -1.3031  0.3439  0.4140
19216THY    CA567715   4.545   4.111   2.870 -0.2907 -0.3918 -0.0289
19216THY    CM167716   4.678   4.126   2.930 -0.6657 -0.1362  0.4251
19216THY    HM167717   4.752   4.046   2.913 -1.1667 -1.9384  0.2939
19216THY    HM267718   4.683   4.165   3.032 -0.5214 -0.3836  1.0610
19216THY    HM367719   4.724   4.198   2.862 -2.6062 -1.6932  0.2754
19216THY    CA667720   4.509   3.994   2.808 -0.2802 -1.0073  0.2934
19216THY    HA667721   4.588   3.921   2.793  0.4710 -1.9220  1.2561
19217THY      O67722   5.468   8.965   6.999 -0.0696 -0.0146 -0.0741
19217THY     HO67723   5.532   9.024   7.040  2.5268 -1.0517 -1.9818
19217THY    CA167724   5.421   8.878   7.089 -0.7619  0.1661  0.5927
19217THY    CA267725   5.401   8.746   7.048  0.4685 -0.3043  0.2524
19217THY    CP167726   5.418   8.699   6.907  0.2727  1.0896  0.1649
19217THY    HP167727   5.423   8.788   6.843 -0.2306 -0.8690 -1.1376
19217THY    CP267728   5.289   8.616   6.864 -0.6550 -0.4656 -0.3692
19217THY    HP267729   5.296   8.519   6.915  1.1051  2.8812  1.3269
19217THY    HP367730   5.285   8.603   6.755  2.3509 -0.7048 -0.0799
19217THY    HP467731   5.199   8.659   6.907 -1.0436 -0.1513 -1.4495
19217THY    CP367732   5.538   8.610   6.882 -0.2141  0.1282  0.6752
19217THY    HP567733   5.534   8.529   6.957  0.1710  0.0169  0.5529
19217THY    HP667734   5.632   8.665   6.889  0.8070  0.7067 -1.0582
19217THY    HP767735   5.541   8.569   6.781  1.0591 -0.2267  1.5809
19217THY    CA367736   5.344   8.662   7.154 -0.1262  0.2208 -0.0050
19217THY    HA367737   5.322   8.557   7.136 -0.0287  2.6040 -0.4858
19217THY    CA467738   5.313   8.711   7.274 -0.7319 -0.2568 -0.8169
19217THY    HA467739   5.247   8.648   7.333 -0.2046 -0.3615 -1.4731
19217THY    CA567740   5.341   8.843   7.310 -0.7925 -0.1690 -0.0385
19217THY    CM167741   5.294   8.886   7.449 -0.1210  0.1717 -0.0444
19217THY    HM167742   5.313   8.809   7.524  2.2724 -0.5365 -0.2213
19217THY    HM267743   5.193   8.918   7.422  0.3182 -1.2076  0.2195
19217THY    HM367744   5.348   8.973   7.490 -2.1374 -1.2621  2.0065
19217THY    CA667745   5.406   8.924   7.219 -0.1343 -0.1032  0.1079
19217THY    HA667746   5.437   9.024   7.249  2.6952  3.5007 -1.6058
19218THY      O67747   7.471   6.127   6.391 -0.0320 -0.7948 -0.0397
19218THY     HO67748   7.506   6.190   6.325 -0.6983 -0.6948  0.4517
19218THY    CA167749   7.471   6.009   6.324  0.1037 -0.4923 -0.6609
19218THY    CA267750   7.359   5.921   6.331 -0.4631  0.3893 -0.1332
19218THY    CP167751   7.231   5.957   6.409  0.5681 -0.1483  0.8768
19218THY    HP167752   7.232   6.061   6.444  2.2674  0.7112  0.6111
19218THY    CP267753   7.239   5.881   6.541 -0.6330 -0.8506  0.1892
19218THY    HP267754   7.150   5.906   6.601  0.9689 -0.1982  5.4289
19218THY    HP367755   7.332   5.898   6.597  0.4972 -2.4429 -0.4895
19218THY    HP467756   7.255   5.773   6.529  2.0246  1.1674  0.2379
19218THY    CP367757   7.110   5.915   6.334  0.4750 -0.2217  0.1158
19218THY    HP567758   7.128   5.921   6.226 -1.8088 -0.6939 -0.5012
19218THY    HP667759   7.025   5.980   6.357 -0.2770 -0.0608 -0.8990
19218THY    HP767760   7.076   5.815   6.361  0.2278  2.1348  0.7744
19218THY    CA367761   7.359   5.800   6.250  0.7244 -0.8976 -0.2020
19218THY    HA367762   7.283   5.723   6.249  2.7038 -1.5511 -2.2704
19218THY    CA467763   7.468   5.771   6.176 -0.0485  0.6893 -0.0715
19218THY    HA467764   7.470   5.684   6.111 -1.0399  0.8272 -0.2110
19218THY    CA567765   7.575   5.851   6.180 -0.1472  0.0571 -0.2426
19218THY    CM167766   7.696   5.811   6.111  0.1918  0.6157 -0.2019
19218THY    HM167767   7.688   5.716   6.057 -2.3532 -0.9134  0.7905
19218THY    HM267768   7.792   5.815   6.165  0.7372 -0.3599  0.5647
19218THY    HM367769   7.706   5.888   6.033 -0.8157  1.1204  0.4612
19218THY    CA667770   7.584   5.967   6.260 -0.0200  0.2237 -0.2335
19218THY    HA667771   7.672   6.030   6.255 -0.3602 -0.4425  0.1937
19219THY      O67772   1.967   2.663   6.521 -0.4217 -0.6166  0.4673
19219THY     HO67773   1.998   2.715   6.597  1.3423 -1.9611  1.4887
19219THY    CA167774   1.934   2.757   6.427 -0.6152 -0.0696  0.1384
19219THY    CA267775   1.912   2.718   6.298  0.4574  0.1448 -0.3489
19219THY    CP167776   1.944   2.574   6.252  0.2776 -0.6379  0.2132
19219THY    HP167777   1.992   2.518   6.333  1.2198 -1.3494 -0.0291
19219THY    CP267778   2.046   2.562   6.144 -0.8785  0.5647  0.5018
19219THY    HP267779   2.141   2.608   6.174 -0.7928 -1.8083  2.0762
19219THY    HP367780   2.015   2.625   6.059 -0.8045 -1.5944 -2.1809
19219THY    HP467781   2.065   2.461   6.107  0.7764 -1.8693  1.5889
19219THY    CP367782   1.813   2.521   6.216 -0.1307 -0.0463 -0.2413
19219THY    HP567783   1.814   2.413   6.195  1.4904 -0.0769 -0.2432
19219THY    HP667784   1.773   2.565   6.123 -0.9671  0.1234 -0.6281
19219THY    HP767785   1.741   2.544   6.295  0.0837 -0.2299  1.1294
19219THY    CA367786   1.864   2.814   6.202  0.2184  0.1817  0.3077
19219THY    HA367787   1.836   2.785   6.101  0.7719  0.4143 -1.1120
19219THY    CA467788   1.855   2.951   6.242 -0.0447 -0.5264  0.1202
19219THY    HA467789   1.819   3.028   6.174 -0.7291 -0.9864 -0.5964
19219THY    CA567790   1.885   2.989   6.374 -0.3061  1.2225 -0.6400
19219THY    CM167791   1.852   3.127   6.423  0.3989  0.3098 -0.7387
19219THY    HM167792   1.869   3.208   6.352 -1.8438  0.0916 -0.3799
19219THY    HM267793   1.907   3.137   6.517  0.8310  0.3455 -2.9443
19219THY    HM367794   1.743   3.136   6.437  0.3449 -1.1635  1.5904
19219THY    CA667795   1.918   2.889   6.466 -0.4901  0.0408  0.3519
19219THY    HA667796   1.934   2.909   6.572  0.4856  0.3103 -1.5829
19220THY      O67797   5.064   5.174   3.126  0.4763  0.1575 -0.1032
19220THY     HO67798   5.048   5.115   3.050 -1.6381  0.5930 -0.1923
19220THY    CA167799   4.952   5.169   3.205  0.0503  0.5558 -0.0720
19220THY    CA267800   4.955   5.207   3.340 -0.0405 -0.2638  0.3475
19220THY    CP167801   5.075   5.284   3.393 -0.5939  0.5023 -0.4097
19220THY    HP167802   5.155   5.285   3.318 -1.3742 -0.3591  0.0707
19220THY    CP267803   5.138   5.232   3.528 -0.2919 -0.0480 -0.3057
19220THY    HP267804   5.179   5.131   3.513 -0.2831  0.8531 -0.4420
19220THY    HP367805   5.062   5.236   3.607 -1.6121 -1.2751 -0.2445
19220THY    HP467806   5.218   5.302   3.555 -0.1693 -0.9825 -0.0732
19220THY    CP367807   5.033   5.429   3.399 -0.6144 -0.2979  0.0418
19220THY    HP567808   4.938   5.446   3.450  0.0662  0.4632  1.8420
19220THY    HP667809   5.023   5.477   3.301 -0.3800 -1.9074 -2.9503
19220THY    HP767810   5.106   5.483   3.461 -1.2633  1.8594 -1.4398
19220THY    CA367811   4.840   5.177   3.426 -0.0762 -0.5174 -0.6870
19220THY    HA367812   4.845   5.201   3.532 -0.7708 -0.8299  0.9330
19220THY    CA467813   4.736   5.108   3.366 -0.3248  0.4918 -0.3035
19220THY    HA467814   4.644   5.092   3.421 -0.7768 -0.6185 -1.7887
19220THY    CA567815   4.731   5.072   3.230  0.4247 -0.2293 -0.0710
19220THY    CM167816   4.616   5.002   3.165  0.1767  0.7717 -0.2822
19220THY    HM167817   4.522   5.008   3.221 -0.3702 -0.1056 -0.4410
19220THY    HM267818   4.637   4.894   3.157  0.3942  0.1509 -0.2000
19220THY    HM367819   4.597   5.033   3.062 -0.5926  0.4344 -1.7770
19220THY    CA667820   4.838   5.111   3.152  0.1200  0.0447  0.3156
19220THY    HA667821   4.833   5.104   3.043  0.4706 -0.0502  1.3937
19221THY      O67822   0.609   1.414   2.314 -0.0433 -0.0503  0.0833
19221THY     HO67823   0.625   1.462   2.398  0.9206  0.2050 -0.6562
19221THY    CA167824   0.595   1.516   2.226 -0.2190 -0.1343  0.6111
19221THY    CA267825   0.662   1.517   2.094  0.1665 -0.0591  1.0823
19221THY    CP167826   0.737   1.395   2.043  0.5200 -0.3195 -0.0798
19221THY    HP167827   0.695   1.311   2.099 -3.2942  0.1460  1.9047
19221THY    CP267828   0.886   1.407   2.070 -0.3507 -0.6179 -0.1919
19221THY    HP267829   0.924   1.485   2.003 -1.7282  0.9539  1.9338
19221THY    HP367830   0.942   1.318   2.039  0.8533 -0.2853  0.4226
19221THY    HP467831   0.906   1.423   2.177 -1.0071 -0.9089  3.3801
19221THY    CP367832   0.716   1.364   1.894  0.4525 -0.4633 -0.5174
19221THY    HP567833   0.736   1.457   1.838 -3.1245 -1.3133 -0.1246
19221THY    HP667834   0.615   1.331   1.867  0.1140  1.0244 -0.7477
19221THY    HP767835   0.789   1.290   1.859 -0.7137 -0.5515 -1.6639
19221THY    CA367836   0.652   1.635   2.014 -0.3944 -0.2013 -0.2152
19221THY    HA367837   0.708   1.637   1.921  0.1074  0.0045 -2.6410
19221THY    CA467838   0.569   1.744   2.059 -0.3499  0.0260  0.1896
19221THY    HA467839   0.551   1.830   1.996 -0.9290  0.0785  0.1083
19221THY    CA567840   0.503   1.735   2.182 -0.3702 -0.4262 -0.1488
19221THY    CM167841   0.406   1.842   2.223 -0.3087  0.2895  0.1983
19221THY    HM167842   0.463   1.934   2.240  3.2350 -0.2134 -1.7161
19221THY    HM267843   0.338   1.831   2.308 -0.1400  0.8455  2.7937
19221THY    HM367844   0.335   1.861   2.141  0.1170  0.1320  1.1337
19221THY    CA667845   0.533   1.627   2.267  1.0263 -0.3217  0.4844
19221THY    HA667846   0.482   1.624   2.364  0.1084 -0.8027 -2.3910
19222THY      O67847   7.318   7.985   1.928  0.4244 -0.8945 -0.5154
19222THY     HO67848   7.401   7.943   1.958  1.3215 -0.3133  1.5555
19222THY    CA167849   7.360   8.109   1.915  0.8503 -0.4447 -0.4076
19222THY    CA267850   7.262   8.208   1.907  0.3153  0.4095  1.0291
19222THY    CP167851   7.110   8.178   1.925 -0.1517  0.2160 -0.4027
19222THY    HP167852   7.077   8.080   1.888  0.5689 -2.2177  0.2245
19222THY    CP267853   7.019   8.265   1.839  0.0029  0.0692  0.5469
19222THY    HP267854   7.054   8.289   1.738  1.0503  0.8908  2.8110
19222THY    HP367855   6.998   8.365   1.880  0.0445  1.4264  0.0210
19222THY    HP467856   6.921   8.216   1.845 -0.8513 -1.1636  2.0143
19222THY    CP367857   7.076   8.182   2.076  0.0891  0.3506  0.0392
19222THY    HP567858   7.112   8.088   2.120  1.5238  0.1636  0.4708
19222THY    HP667859   6.968   8.193   2.092  0.0671 -0.8743  2.1317
19222THY    HP767860   7.137   8.257   2.127  1.7386 -0.9238 -0.3805
19222THY    CA367861   7.304   8.329   1.853 -0.2706  0.5667 -0.3499
19222THY    HA367862   7.231   8.406   1.828  2.3162  2.3395  2.9583
19222THY    CA467863   7.439   8.364   1.845 -0.1810  0.6312  0.0907
19222THY    HA467864   7.467   8.465   1.815 -1.2999  0.3365  0.3287
19222THY    CA567865   7.536   8.267   1.870  0.0276  0.3197  0.7757
19222THY    CM167866   7.681   8.292   1.853  1.1915 -0.0928 -0.2668
19222THY    HM167867   7.742   8.201   1.862  0.0422  0.4472 -1.0012
19222THY    HM267868   7.714   8.374   1.918 -1.3599  3.9107 -2.0988
19222THY    HM367869   7.689   8.326   1.749 -1.6290  0.0271  1.1123
19222THY    CA667870   7.496   8.132   1.895  0.2279  0.5539 -0.0854
19222THY    HA667871   7.559   8.044   1.892 -2.9457 -3.0240 -2.5490
19223THY      O67872   3.908   4.630   6.288  0.0618 -0.0603  0.7787
19223THY     HO67873   3.906   4.695   6.215  1.5034 -1.0751 -0.2359
19223THY    CA167874   3.947   4.512   6.216 -0.2745 -1.0441  0.4922
19223THY    CA267875   3.867   4.396   6.203 -0.0600 -0.2314 -0.2158
19223THY    CP167876   3.729   4.397   6.271 -0.5282 -0.6233 -0.8164
19223THY    HP167877   3.695   4.500   6.283  1.5239 -0.0894 -0.1508
19223THY    CP267878   3.737   4.342   6.417 -0.4539  0.1834 -0.3820
19223THY    HP267879   3.633   4.334   6.452 -0.8803 -1.1303 -0.9651
19223THY    HP367880   3.778   4.411   6.491  0.2863 -0.8077  0.2667
19223THY    HP467881   3.786   4.244   6.421 -1.1836  2.4021 -0.7043
19223THY    CP367882   3.620   4.329   6.186  0.6255  0.3782  0.0158
19223THY    HP567883   3.620   4.220   6.199 -1.1406  1.0060  0.0528
19223THY    HP667884   3.637   4.355   6.081  2.3496  0.3679 -0.9578
19223THY    HP767885   3.532   4.367   6.240  1.4008  0.7489  1.3332
19223THY    CA367886   3.922   4.282   6.139  0.2617  0.6381 -0.0825
19223THY    HA367887   3.872   4.186   6.139 -0.8331 -1.4243  0.4502
19223THY    CA467888   4.050   4.284   6.085  0.1196  0.4683 -0.1632
19223THY    HA467889   4.095   4.197   6.037 -2.9617 -0.8009 -1.2233
19223THY    CA567890   4.125   4.399   6.092 -0.1261 -0.7337  0.3028
19223THY    CM167891   4.273   4.394   6.046 -0.4755  0.7585  0.1952
19223THY    HM167892   4.344   4.349   6.115  1.4398 -1.3013 -0.1338
19223THY    HM267893   4.313   4.493   6.020 -0.7319  0.6402  0.2711
19223THY    HM367894   4.292   4.333   5.957 -1.5851  0.1369  0.7193
19223THY    CA667895   4.072   4.509   6.155 -0.5244  0.2272 -0.3143
19223THY    HA667896   4.139   4.594   6.163  0.6662 -2.4435 -0.8899
19224THY      O67897   8.625   5.494   7.055 -0.1379 -0.2252 -0.0758
19224THY     HO67898   8.625   5.567   6.990 -0.5767 -1.5062 -1.1630
19224THY    CA167899   8.538   5.412   7.004 -0.2065  0.4247  0.1880
19224THY    CA267900   8.566   5.274   7.008 -0.1620  0.0113 -0.4118
19224THY    CP167901   8.652   5.218   7.120  1.1309 -0.0246  0.3888
19224THY    HP167902   8.669   5.300   7.191  0.2542  0.6226  0.0282
19224THY    CP267903   8.796   5.183   7.064 -0.0062 -0.4123 -0.7283
19224THY    HP267904   8.852   5.123   7.137  0.6828  0.1758  0.5962
19224THY    HP367905   8.852   5.276   7.047 -0.2104  2.3898 -0.0127
19224THY    HP467906   8.795   5.125   6.971 -0.3205  0.0109 -1.4175
19224THY    CP367907   8.596   5.102   7.201 -0.0047 -0.3792 -0.0009
19224THY    HP567908   8.667   5.078   7.281  1.4167 -1.0174  1.8621
19224THY    HP667909   8.582   5.007   7.148  0.6403 -0.8939  0.1844
19224THY    HP767910   8.494   5.132   7.230  0.3963 -0.0798  1.1108
19224THY    CA367911   8.489   5.188   6.940 -0.3083 -0.0778 -0.8377
19224THY    HA367912   8.507   5.081   6.945  0.9971  0.2673 -0.6234
19224THY    CA467913   8.388   5.243   6.852 -0.4678  0.1451 -0.1642
19224THY    HA467914   8.325   5.172   6.798  0.6383 -1.0301 -0.2929
19224THY    CA567915   8.360   5.379   6.836 -0.2703  0.1914 -0.6872
19224THY    CM167916   8.245   5.437   6.762 -0.6188  0.3046 -0.7448
19224THY    HM167917   8.286   5.532   6.725  0.5489  0.6109 -1.1152
19224THY    HM267918   8.155   5.451   6.824 -0.8489  0.1475 -1.4806
19224THY    HM367919   8.209   5.375   6.679 -1.3108  0.1923 -0.2148
19224THY    CA667920   8.441   5.465   6.918  0.2172 -0.1905  0.5064
19224THY    HA667921   8.420   5.571   6.914 -0.4820  2.3548  0.5526
19225THY      O67922   0.579   8.821   3.789 -0.6660 -0.0162 -0.0387
19225THY     HO67923   0.573   8.858   3.699  0.5286  0.7956  2.3402
19225THY    CA167924   0.511   8.912   3.867 -0.5272  0.1159 -0.3195
19225THY    CA267925   0.509   8.893   4.005 -0.5482  0.1665 -0.0036
19225THY    CP167926   0.570   8.763   4.067 -0.1508  0.6550 -0.1009
19225THY    HP167927   0.648   8.723   4.001 -0.4677  0.0231  0.3045
19225THY    CP267928   0.471   8.643   4.080 -0.1914 -0.1140 -0.1395
19225THY    HP267929   0.442   8.616   4.182 -1.7176  0.2739  2.5927
19225THY    HP367930   0.534   8.560   4.047  0.2571  0.7224 -0.1387
19225THY    HP467931   0.390   8.653   4.006  1.2725 -1.7174  0.3452
19225THY    CP367932   0.635   8.790   4.200  0.2111 -0.7976 -0.0799
19225THY    HP567933   0.720   8.721   4.205  0.0998 -0.9499 -0.2260
19225THY    HP667934   0.569   8.768   4.285 -0.4220 -1.5668 -1.2140
19225THY    HP767935   0.683   8.888   4.210  1.9364  0.5721 -0.9957
19225THY    CA367936   0.447   8.999   4.086  0.3558  0.5418 -0.1554
19225THY    HA367937   0.448   8.999   4.195  1.4531  0.5490  0.6726
19225THY    CA467938   0.380   9.100   4.023  0.8818  0.9300 -0.2477
19225THY    HA467939   0.331   9.176   4.084 -1.1550 -0.8433 -0.0194
19225THY    CA567940   0.388   9.114   3.884  0.5660  0.5667  0.6349
19225THY    CM167941   0.324   9.235   3.825  0.9472 -0.1420 -0.2002
19225THY    HM167942   0.218   9.249   3.848  0.2959 -2.3862 -0.9858
19225THY    HM267943   0.329   9.246   3.717  0.3371 -0.1327  0.1798
19225THY    HM367944   0.377   9.318   3.873 -2.1606  0.8477  1.3770
19225THY    CA667945   0.459   9.025   3.804  0.4498 -0.1278  0.3365
19225THY    HA667946   0.469   9.040   3.697  0.5437 -0.6171 -2.6194
19226THY      O67947   7.076   5.836   1.507  0.3879  0.3291  0.3855
19226THY     HO67948   7.130   5.771   1.459  1.9187  1.4932  0.7471
19226THY    CA167949   7.157   5.901   1.593  0.3144  0.2278  0.6023
19226THY    CA267950   7.115   5.949   1.724  0.3774 -0.0461  0.2681
19226THY    CP167951   6.975   5.919   1.769 -0.1108  0.3348 -0.7944
19226THY    HP167952   6.943   5.857   1.685  2.0962 -1.5300  0.3966
19226THY    CP267953   6.903   6.049   1.773  0.7445  0.1885 -0.9846
19226THY    HP267954   6.936   6.122   1.848 -0.9199 -2.3563  2.7313
19226THY    HP367955   6.796   6.026   1.778  0.7612 -2.2732 -1.8153
19226THY    HP467956   6.909   6.103   1.678 -1.5416  0.5582  0.0582
19226THY    CP367957   6.959   5.842   1.898 -0.7320  0.1795 -0.2373
19226THY    HP567958   6.959   5.904   1.988  0.1534 -0.7723  1.2057
19226THY    HP667959   7.038   5.766   1.904 -2.7384  0.4258 -2.4277
19226THY    HP767960   6.867   5.784   1.889 -1.2155 -0.4511  0.6059
19226THY    CA367961   7.208   6.000   1.808  0.0395  0.1654  0.0634
19226THY    HA367962   7.173   6.035   1.904 -1.7551 -1.5704  3.5367
19226THY    CA467963   7.340   6.014   1.762 -0.3405  0.2589 -0.1742
19226THY    HA467964   7.413   6.053   1.832 -0.8829  2.0688 -2.2047
19226THY    CA567965   7.382   5.974   1.631  0.9709 -0.4627  0.3762
19226THY    CM167966   7.525   5.975   1.595 -1.1624 -0.1442 -0.0903
19226THY    HM167967   7.540   6.047   1.514  0.7499  2.2709  2.4363
19226THY    HM267968   7.545   5.871   1.566 -2.1505  0.9319 -0.6069
19226THY    HM367969   7.582   6.005   1.683 -1.6503 -0.6396  2.5361
19226THY    CA667970   7.285   5.922   1.548  0.0704  1.1842 -0.3962
19226THY    HA667971   7.319   5.892   1.449  1.4435  1.6363 -0.3648
19227THY      O67972   6.108   3.828   4.482 -0.4589 -0.0712 -0.0541
19227THY     HO67973   6.169   3.836   4.558 -1.7364  0.9404  0.4717
19227THY    CA167974   6.084   3.695   4.467  1.0499  0.0694  0.4622
19227THY    CA267975   5.957   3.639   4.500 -0.5197 -0.2337 -0.0322
19227THY    CP167976   5.836   3.727   4.516 -0.5797 -0.1516  0.1258
19227THY    HP167977   5.855   3.818   4.458 -1.9743 -0.2238  0.3940
19227THY    CP267978   5.805   3.757   4.661 -0.6094 -0.4603 -0.0376
19227THY    HP267979   5.808   3.668   4.724  2.5347  0.4312  0.5549
19227THY    HP367980   5.707   3.806   4.662 -1.0392  0.3193 -0.8925
19227THY    HP467981   5.886   3.823   4.694 -0.6645 -0.0685 -0.1674
19227THY    CP367982   5.711   3.670   4.448 -0.2486 -0.2306 -0.0805
19227THY    HP567983   5.641   3.754   4.435 -0.3375 -1.0304 -0.2717
19227THY    HP667984   5.681   3.568   4.475  3.5763  0.1857 -1.2310
19227THY    HP767985   5.732   3.652   4.342  1.2957  0.2029 -0.9423
19227THY    CA367986   5.952   3.496   4.515  0.0145 -0.1387  0.1005
19227THY    HA367987   5.862   3.449   4.554 -0.3427  1.7911  2.2255
19227THY    CA467988   6.068   3.418   4.482  1.0823  0.0340  0.3489
19227THY    HA467989   6.066   3.310   4.497  0.0876  1.5226  0.5369
19227THY    CA567990   6.186   3.483   4.448  0.8316  0.6189 -0.3149
19227THY    CM167991   6.311   3.406   4.407  0.3728  0.0234  0.5873
19227THY    HM167992   6.298   3.385   4.300 -1.1394  0.4025 -0.6252
19227THY    HM267993   6.314   3.308   4.456 -0.1929 -1.7534 -0.3772
19227THY    HM367994   6.408   3.453   4.427  1.0202 -2.3869  0.4040
19227THY    CA667995   6.193   3.618   4.437  0.8875  0.0071 -0.2669
19227THY    HA667996   6.289   3.668   4.434  1.0539  0.5574 -0.5428
19228THY      O67997   0.176   7.117   4.894 -0.1028  0.4181  0.1530
19228THY     HO67998   0.148   7.051   4.960 -0.9915 -2.4608 -2.5780
19228THY    CA167999   0.223   7.228   4.961 -0.3943  0.7050  0.3811
19228THY    CA268000   0.277   7.338   4.894 -0.2953  0.1260  0.0171
19228THY    CP168001   0.310   7.340   4.746  0.7614  0.0362  0.0943
19228THY    HP168002   0.253   7.261   4.697  2.9781 -0.0174 -1.5798
19228THY    CP268003   0.458   7.299   4.734  0.5925 -0.2693 -0.1789
19228THY    HP268004   0.470   7.196   4.768 -2.5896  2.9127  0.2680
19228THY    HP368005   0.518   7.370   4.792  1.7376  0.2328 -1.5135
19228THY    HP468006   0.490   7.315   4.631 -1.6838 -1.1656 -0.9917
19228THY    CP368007   0.287   7.478   4.679  0.1188 -0.2087 -0.1226
19228THY    HP568008   0.384   7.529   4.687 -0.1805 -0.7186  0.5399
19228THY    HP668009   0.197   7.523   4.722  1.3412  2.4580 -0.0244
19228THY    HP768010   0.260   7.470   4.573  0.1493 -0.1585 -1.0204
19228THY    CA368011   0.321   7.446   4.969 -0.2581  0.1158 -0.0220
19228THY    HA368012   0.368   7.534   4.926 -0.7279 -0.5057 -0.0699
19228THY    CA468013   0.301   7.450   5.107 -0.1059  0.7501  0.0896
19228THY    HA468014   0.326   7.529   5.176  0.9037  1.3945 -0.7623
19228THY    CA568015   0.238   7.343   5.164 -0.4549 -0.2883  0.7793
19228THY    CM168016   0.213   7.332   5.311 -0.6536  0.4459  0.4385
19228THY    HM168017   0.126   7.393   5.338 -0.9847 -0.0784  0.2087
19228THY    HM268018   0.294   7.377   5.370  0.3571 -2.5141  2.8753
19228THY    HM368019   0.181   7.232   5.343  1.2462 -0.7279 -0.5971
19228THY    CA668020   0.196   7.232   5.093  0.7860  0.7025  0.2931
19228THY    HA668021   0.159   7.138   5.131 -1.4192 -0.4390  0.6313
19229THY      O68022   5.599   2.733   5.315  0.3852 -0.0929 -0.7588
19229THY     HO68023   5.646   2.694   5.391 -1.3688  1.7768  0.5646
19229THY    CA168024   5.602   2.863   5.342  0.4212  0.1522 -0.4942
19229THY    CA268025   5.598   2.974   5.247 -0.2170 -0.0024  0.3535
19229THY    CP168026   5.598   2.934   5.094  0.1606  0.0758  0.3569
19229THY    HP168027   5.524   2.855   5.083  0.6026  0.9000 -0.1798
19229THY    CP268028   5.738   2.888   5.050 -0.2507 -0.3408 -0.0316
19229THY    HP268029   5.784   2.811   5.113 -0.7339 -2.3120 -2.0251
19229THY    HP368030   5.802   2.976   5.061  1.2815  2.3292 -1.3394
19229THY    HP468031   5.728   2.843   4.951 -1.1152  0.4320 -1.6618
19229THY    CP368032   5.558   3.043   5.002 -0.2793 -0.3895 -0.2238
19229THY    HP568033   5.544   3.002   4.902 -3.1006 -1.3113  2.5761
19229THY    HP668034   5.629   3.124   4.982 -0.1406  0.8609 -0.0051
19229THY    HP768035   5.457   3.077   5.031 -0.1092  1.4773 -1.1959
19229THY    CA368036   5.606   3.107   5.288 -0.1102  0.3098 -0.1092
19229THY    HA368037   5.613   3.191   5.219  2.3043  0.9499  0.3043
19229THY    CA468038   5.623   3.130   5.429  0.7776 -0.4685 -0.1987
19229THY    HA468039   5.629   3.231   5.467 -1.8817 -0.1402 -0.0704
19229THY    CA568040   5.620   3.025   5.522 -0.3620 -0.3652 -0.2412
19229THY    CM168041   5.614   3.065   5.667  0.1367 -0.1028  0.0075
19229THY    HM168042   5.697   3.025   5.726 -0.3533 -0.4162 -1.5463
19229THY    HM268043   5.523   3.018   5.706 -1.0118 -3.4152 -0.7874
19229THY    HM368044   5.593   3.171   5.685 -0.3322  1.9731 -0.3995
19229THY    CA668045   5.613   2.891   5.481  0.6604 -0.7831  0.1993
19229THY    HA668046   5.624   2.815   5.558 -0.3330 -1.5636 -0.7661
19230THY      O68047   4.441   9.189   5.755  0.3167 -0.2935  0.3033
19230THY     HO68048   4.443   9.279   5.793  0.4307  1.2178 -0.3151
19230THY    CA168049   4.491   9.198   5.635 -0.0678  0.2588 -0.2698
19230THY    CA268050   4.463   9.105   5.534  0.2087  0.1513  0.4559
19230THY    CP168051   4.362   8.983   5.556 -0.0365 -0.5167  0.2705
19230THY    HP168052   4.324   8.999   5.657 -1.7679 -0.8992 -1.1295
19230THY    CP268053   4.445   8.845   5.560 -0.2163  0.4107 -0.2457
19230THY    HP268054   4.369   8.766   5.556  0.2181  1.4125 -0.7317
19230THY    HP368055   4.518   8.833   5.641  1.8930 -1.6421 -2.5266
19230THY    HP468056   4.500   8.824   5.467 -1.5661 -1.0362  2.1053
19230THY    CP368057   4.242   8.980   5.460  0.3980  0.6395  0.4915
19230THY    HP568058   4.251   8.901   5.384  0.6646 -1.5646  2.5048
19230THY    HP668059   4.232   9.076   5.408  0.6547 -1.5497 -0.6094
19230THY    HP768060   4.154   8.956   5.520  1.0327  0.8157 -1.5887
19230THY    CA368061   4.523   9.118   5.407  0.0188  0.0274  0.3700
19230THY    HA368062   4.505   9.057   5.320 -1.0110 -1.8972  3.1954
19230THY    CA468063   4.606   9.228   5.388 -0.2900  0.0262  0.1937
19230THY    HA468064   4.649   9.239   5.289  1.3620  0.9469  2.7309
19230THY    CA568065   4.645   9.312   5.486 -0.4443 -0.4180  0.1423
19230THY    CM168066   4.755   9.403   5.465 -0.9078  0.1812  0.1740
19230THY    HM168067   4.844   9.363   5.514 -0.3274 -0.7800  0.2397
19230THY    HM268068   4.725   9.493   5.521 -0.8125 -0.6064  0.7067
19230THY    HM368069   4.784   9.430   5.363 -0.5316  0.8619  2.6122
19230THY    CA668070   4.582   9.300   5.609 -0.5486 -0.4472 -0.1271
19230THY    HA668071   4.622   9.376   5.675  2.6852 -1.6501 -0.6208
19231THY      O68072   5.209   7.213   6.415 -0.2016 -0.1886 -0.1185
19231THY     HO68073   5.138   7.274   6.440  0.4298  0.3641  0.4111
19231THY    CA168074   5.161   7.137   6.319 -0.2147 -0.3796 -0.6499
19231THY    CA268075   5.230   7.032   6.265  0.6727 -0.3340  0.7592
19231THY    CP168076   5.371   7.000   6.306 -0.1950 -0.6567 -0.4418
19231THY    HP168077   5.399   7.063   6.390  1.3102 -0.5276 -1.2227
19231THY    CP268078   5.479   7.037   6.200 -0.4337  0.5953  0.5331
19231THY    HP268079   5.573   7.007   6.247  0.6975 -0.8349  1.7080
19231THY    HP368080   5.476   7.145   6.185  0.2671  1.0943  0.6324
19231THY    HP468081   5.465   6.974   6.112  1.0088  1.6850 -1.4251
19231THY    CP368082   5.379   6.856   6.363  0.4884 -0.7250 -0.1161
19231THY    HP568083   5.426   6.864   6.462 -2.3539  0.7973 -0.7608
19231THY    HP668084   5.425   6.783   6.296 -1.4730 -0.8697 -1.2816
19231THY    HP768085   5.277   6.822   6.383 -0.4566  2.2835  3.7197
19231THY    CA368086   5.168   6.933   6.180 -1.1888  0.1105  0.2708
19231THY    HA368087   5.226   6.849   6.144  1.6160  0.0830  2.0686
19231THY    CA468088   5.037   6.952   6.150  0.3658 -0.0418  0.1114
19231THY    HA468089   4.989   6.879   6.085  0.4572 -0.6072  0.5503
19231THY    CA568090   4.967   7.063   6.203  0.4287 -0.2660  0.4777
19231THY    CM168091   4.818   7.083   6.182 -0.0263 -0.5828  0.2274
19231THY    HM168092   4.812   7.151   6.097  0.7609 -0.8822 -0.0724
19231THY    HM268093   4.765   7.124   6.269 -0.0438  0.1041 -1.1764
19231THY    HM368094   4.764   6.992   6.152 -2.0799 -0.1371  1.2371
19231THY    CA668095   5.028   7.158   6.287 -0.7666  0.5304 -0.0860
19231THY    HA668096   4.968   7.238   6.330  1.6487 -0.7005  2.5692
19232THY      O68097   5.732   7.768   7.005  0.6876 -0.4081  0.3276
19232THY     HO68098   5.816   7.799   7.045 -0.2663  1.4671  0.6293
19232THY    CA168099   5.695   7.662   7.084 -0.0071  0.5189 -0.7128
19232THY    CA268100   5.558   7.619   7.115  0.3251 -0.1769 -0.1986
19232THY    CP168101   5.438   7.685   7.039  0.1386 -0.1238 -0.4617
19232THY    HP168102   5.458   7.793   7.034  1.6336  0.8983 -0.6583
19232THY    CP268103   5.306   7.674   7.118 -0.3700  0.0031 -0.0216
19232THY    HP268104   5.306   7.732   7.211  2.1294  1.3461 -1.9520
19232THY    HP368105   5.274   7.574   7.152 -1.1935  0.9459  0.5398
19232THY    HP468106   5.218   7.704   7.060 -1.6168  1.8467  0.0778
19232THY    CP368107   5.426   7.617   6.896 -0.7677 -0.5879  0.1238
19232THY    HP568108   5.321   7.592   6.876 -0.5425 -0.0353 -1.3909
19232THY    HP668109   5.478   7.522   6.878 -0.6273 -0.7648  0.2356
19232THY    HP768110   5.462   7.686   6.819 -0.8236 -1.0517 -0.3584
19232THY    CA368111   5.535   7.512   7.201  0.0199 -0.3638 -0.4486
19232THY    HA368112   5.438   7.478   7.238 -0.4434  0.3923  1.5336
19232THY    CA468113   5.642   7.450   7.259 -0.4541 -0.6956 -0.0324
19232THY    HA468114   5.635   7.381   7.342 -0.3893  1.1164  2.0534
19232THY    CA568115   5.770   7.490   7.234 -0.3785  0.2954  0.5057
19232THY    CM168116   5.893   7.419   7.292  0.1117 -0.3093  0.1390
19232THY    HM168117   5.957   7.379   7.212 -0.3385 -0.8042  0.3871
19232THY    HM268118   5.858   7.330   7.346  1.4651  1.3993  0.6003
19232THY    HM368119   5.940   7.474   7.374  0.7933  1.5541 -2.9916
19232THY    CA668120   5.800   7.603   7.152  0.6287 -0.0189  0.5354
19232THY    HA668121   5.904   7.631   7.140  0.7849 -0.1926 -0.0934
19233THY      O68122   3.101   7.074   6.182 -0.7353 -0.5554  0.0705
19233THY     HO68123   3.110   6.996   6.238 -1.7734 -0.9885 -0.3766
19233THY    CA168124   3.221   7.087   6.110 -0.0682  0.5870  0.7874
19233THY    CA268125   3.244   7.180   6.007 -0.0944 -0.3182  0.2530
19233THY    CP168126   3.136   7.281   5.976 -0.6324  0.3133  0.5535
19233THY    HP168127   3.035   7.241   5.989 -1.0533  0.3383  1.5958
19233THY    CP268128   3.137   7.319   5.825 -0.2709  0.3698 -0.4558
19233THY    HP268129   3.051   7.383   5.801 -0.4069 -0.2514 -0.8706
19233THY    HP368130   3.139   7.235   5.754  0.3465  0.1647 -0.2712
19233THY    HP468131   3.221   7.386   5.806 -1.0445  1.1397  0.7697
19233THY    CP368132   3.155   7.396   6.066  0.5110  0.6654  0.4728
19233THY    HP568133   3.261   7.422   6.077  0.4848 -1.2367  1.5684
19233THY    HP668134   3.122   7.351   6.160  0.3538 -0.0309 -0.9401
19233THY    HP768135   3.080   7.469   6.032 -2.6674  1.0346 -2.3762
19233THY    CA368136   3.367   7.181   5.940  0.2446  0.0527 -0.9564
19233THY    HA368137   3.387   7.256   5.864 -1.5215 -1.8126 -2.2664
19233THY    CA468138   3.469   7.100   5.986 -0.0521 -0.1225  0.3618
19233THY    HA468139   3.570   7.105   5.947 -0.0487 -0.0861  0.5714
19233THY    CA568140   3.449   7.002   6.085 -0.0878 -0.0832 -0.5254
19233THY    CM168141   3.568   6.907   6.110 -0.6049 -0.6233  0.0308
19233THY    HM168142   3.532   6.823   6.170  1.0146 -1.5733 -1.4098
19233THY    HM268143   3.654   6.962   6.150 -0.4899 -1.0665  0.1751
19233THY    HM368144   3.602   6.867   6.014 -0.0372 -0.3204 -0.2189
19233THY    CA668145   3.323   6.996   6.146 -0.4708 -0.5707 -0.4835
19233THY    HA668146   3.310   6.923   6.226 -1.5261 -0.4325 -0.1612
19234THY      O68147   3.059   2.533   6.812 -0.8196 -0.8733  0.4038
19234THY     HO68148   3.089   2.487   6.732  0.5702 -0.7703  1.0653
19234THY    CA168149   2.934   2.581   6.795  0.4317 -0.5389 -0.4470
19234THY    CA268150   2.889   2.700   6.856 -0.1715  0.2668  0.9477
19234THY    CP168151   2.977   2.772   6.952  0.0691 -0.3742  0.4809
19234THY    HP168152   3.075   2.726   6.971  0.6248 -0.4000  1.6151
19234THY    CP268153   2.926   2.782   7.094  0.0563 -0.4557 -0.4371
19234THY    HP268154   2.994   2.826   7.167 -2.7864  0.3180  3.2266
19234THY    HP368155   2.888   2.685   7.129 -2.1313  1.3583  0.9736
19234THY    HP468156   2.833   2.841   7.100 -0.0787 -1.5083 -0.5177
19234THY    CP368157   2.995   2.915   6.901 -0.9248  0.1926 -0.7791
19234THY    HP568158   3.055   2.979   6.966 -0.4615 -2.8715  2.1990
19234THY    HP668159   2.900   2.962   6.874 -1.3612  1.9550 -0.5988
19234THY    HP768160   3.056   2.910   6.809 -0.3674  0.5518 -0.6690
19234THY    CA368161   2.751   2.740   6.824  0.3570  0.4638 -0.3726
19234THY    HA368162   2.714   2.817   6.891  0.3454  1.6654 -1.4013
19234THY    CA468163   2.671   2.665   6.740  0.0349 -0.6094 -0.7085
19234THY    HA468164   2.571   2.700   6.716  0.7005 -2.1488  0.2233
19234THY    CA568165   2.719   2.548   6.689  0.6408  0.5084  0.2973
19234THY    CM168166   2.631   2.462   6.599  0.4083  0.3641  0.5147
19234THY    HM168167   2.522   2.458   6.609  0.2004 -1.7702 -0.9297
19234THY    HM268168   2.662   2.357   6.608 -0.0981  1.8348  0.4668
19234THY    HM368169   2.645   2.493   6.495 -0.6270 -0.2816 -1.0622
19234THY    CA668170   2.856   2.511   6.706 -0.7025 -0.1107  0.9648
19234THY    HA668171   2.898   2.421   6.662  1.1467  0.3432  1.5760
19235THY      O68172   7.046   3.192   7.890  0.2516  0.2037  0.1288
19235THY     HO68173   6.973   3.139   7.925  0.9457  1.9841  0.2748
19235THY    CA168174   7.143   3.101   7.866 -0.2691 -0.4963 -0.2253
19235THY    CA268175   7.269   3.142   7.822 -0.3991  0.6460  0.6050
19235THY    CP168176   7.294   3.294   7.809 -0.4026 -0.0247 -0.3326
19235THY    HP168177   7.262   3.342   7.902 -0.3510  0.0033 -0.3514
19235THY    CP268178   7.226   3.352   7.689 -0.4679  0.9658  0.2694
19235THY    HP268179   7.282   3.323   7.599 -0.8554  0.7817  0.0898
19235THY    HP368180   7.236   3.461   7.702 -1.0071  0.0051  0.4476
19235THY    HP468181   7.121   3.326   7.674 -0.2356  0.3815 -0.3423
19235THY    CP368182   7.440   3.344   7.811  0.2574 -0.6263  0.2603
19235THY    HP568183   7.498   3.288   7.737  1.5081  0.1546  0.4757
19235THY    HP668184   7.485   3.320   7.909  2.1113 -1.7881 -1.2694
19235THY    HP768185   7.457   3.449   7.784  1.9871  2.6213  0.9455
19235THY    CA368186   7.355   3.046   7.767 -0.1488  0.2986 -0.0309
19235THY    HA368187   7.451   3.075   7.727  0.6367  0.7656 -1.8477
19235THY    CA468188   7.317   2.913   7.776 -0.1287  0.0173  0.4005
19235THY    HA468189   7.387   2.837   7.742 -0.9365  2.3586 -1.5480
19235THY    CA568190   7.193   2.877   7.833  0.2494 -0.0175  0.5732
19235THY    CM168191   7.143   2.733   7.855 -0.3655 -0.4755 -0.3008
19235THY    HM168192   7.198   2.657   7.799  0.7283  2.3838 -1.7639
19235THY    HM268193   7.036   2.729   7.832 -0.2862 -0.6762 -1.5055
19235THY    HM368194   7.159   2.709   7.961  0.5820 -0.1459  1.5730
19235THY    CA668195   7.102   2.971   7.875 -1.2318 -0.4636 -0.5212
19235THY    HA668196   7.003   2.954   7.916 -1.6423 -0.0908  2.3462
19236THY      O68197   0.695   7.964   6.688 -0.0412  0.8598 -0.5806
19236THY     HO68198   0.643   8.033   6.644  0.5820  0.8582 -0.0967
19236THY    CA168199   0.746   8.001   6.803 -0.6005 -0.0558 -0.4037
19236THY    CA268200   0.833   7.921   6.879 -0.3020 -0.6815  0.0188
19236THY    CP168201   0.885   7.786   6.811  0.7365  0.0950 -0.6403
19236THY    HP168202   0.814   7.747   6.737 -0.4441  1.2099 -0.7106
19236THY    CP268203   0.902   7.670   6.910  0.2461  0.0872  0.0333
19236THY    HP268204   0.975   7.705   6.984  2.1568 -2.2811  1.3895
19236THY    HP368205   0.943   7.582   6.860  0.3515  0.2724 -0.0221
19236THY    HP468206   0.800   7.645   6.942  0.4981  0.9281  0.0638
19236THY    CP368207   1.026   7.800   6.743 -0.2556  0.0487 -0.0078
19236THY    HP568208   1.046   7.709   6.685  0.4993  2.1495 -1.2442
19236THY    HP668209   1.116   7.811   6.805  0.4379 -0.9215 -0.0362
19236THY    HP768210   1.034   7.881   6.669  1.1819 -0.3114 -0.4383
19236THY    CA368211   0.874   7.964   7.009 -0.0163 -0.3009 -0.3766
19236THY    HA368212   0.944   7.903   7.065 -2.5693 -0.5677 -3.8532
19236THY    CA468213   0.832   8.092   7.049 -0.0840 -0.0596  0.1971
19236THY    HA468214   0.859   8.138   7.144 -0.1776 -0.2272  0.5984
19236THY    CA568215   0.743   8.171   6.972 -0.1048  0.3027  0.0865
19236THY    CM168216   0.706   8.310   7.014 -0.5652 -0.1264 -0.7378
19236THY    HM168217   0.783   8.381   6.981 -0.1103  1.1619 -0.6062
19236THY    HM268218   0.691   8.317   7.122 -1.8102 -0.3881  1.6618
19236THY    HM368219   0.614   8.343   6.965  0.7551 -1.4911  1.1784
19236THY    CA668220   0.706   8.126   6.850  0.0589  0.3652 -0.3350
19236THY    HA668221   0.649   8.191   6.785  0.6391 -0.4846 -0.6498
19237THY      O68222   2.547   4.068   5.121  0.2680 -0.1801 -0.2124
19237THY     HO68223   2.600   4.145   5.146  2.7558 -0.4518 -1.6878
19237THY    CA168224   2.514   4.007   5.233 -0.3719  0.0556  0.6093
19237THY    CA268225   2.386   3.974   5.260  0.8230 -0.0232  0.5141
19237THY    CP168226   2.282   3.983   5.151  0.3736  0.3351  0.3501
19237THY    HP168227   2.312   4.042   5.063 -1.3158  1.0747  2.4626
19237THY    CP268228   2.156   4.055   5.204 -0.4971  0.3695  0.0105
19237THY    HP268229   2.094   4.070   5.115  0.1022 -0.3719 -1.6606
19237THY    HP368230   2.180   4.152   5.249 -0.7063 -0.0750  0.2736
19237THY    HP468231   2.091   3.988   5.263 -2.6243  0.4637  2.0353
19237THY    CP368232   2.252   3.847   5.110  0.8564  0.0590  0.2164
19237THY    HP568233   2.343   3.809   5.062 -0.3132 -0.8651 -1.5356
19237THY    HP668234   2.178   3.844   5.029  0.7163  0.1502  0.9468
19237THY    HP768235   2.218   3.777   5.188 -0.6423 -1.8400 -1.2835
19237THY    CA368236   2.353   3.922   5.388  0.2087 -0.7214 -0.3846
19237THY    HA368237   2.248   3.895   5.394 -0.4775 -1.2187  1.9083
19237THY    CA468238   2.447   3.916   5.490  0.5837  0.0520 -0.3840
19237THY    HA468239   2.413   3.887   5.589  0.3411  0.3306  0.7650
19237THY    CA568240   2.578   3.948   5.456 -0.0229  0.4998 -0.6495
19237THY    CM168241   2.687   3.949   5.560 -0.3463  0.1440 -0.0009
19237THY    HM168242   2.732   4.049   5.552 -1.1291 -3.5350  0.1882
19237THY    HM268243   2.763   3.873   5.539  0.1300 -0.5212  0.6425
19237THY    HM368244   2.648   3.922   5.659  0.5269  0.8084  1.0734
19237THY    CA668245   2.613   3.978   5.323 -0.1976 -0.6215 -0.6135
19237THY    HA668246   2.714   4.003   5.290 -0.8307 -2.0709  0.1978
   9.60500   9.60500   9.60500
