Molecule generated using the PoreMS package
20646
    1OM     OM1    1   3.802   0.273   2.983
    2OM     OM1    2   3.885   0.429   2.800
    3OM     OM1    3   3.694   0.513   2.956
    4OM     OM1    4   3.932   0.492   3.054
    5OM     OM1    5   3.604   1.241   6.494
    6OM     OM1    6   3.832   1.330   6.426
    7OM     OM1    7   5.982   8.850   5.574
    8OM     OM1    8   6.188   8.854   5.415
    9OM     OM1    9   6.213   8.872   5.678
   10OM     OM1   10   6.104   9.071   5.556
   11OM     OM1   11   5.061   1.221   3.626
   12OM     OM1   12   4.864   1.054   3.595
   13OM     OM1   13   4.915   1.153   3.832
   14OM     OM1   14   8.973   9.431   4.194
   15OM     OM1   15   8.921   9.354   3.940
   16OM     OM1   16   8.731   9.402   4.104
   17OM     OM1   17   8.879   9.197   4.148
   18OM     OM1   18   5.240   1.209   9.191
   19OM     OM1   19   0.775   1.423   5.026
   20OM     OM1   20   0.623   1.272   4.880
   21OM     OM1   21   0.800   1.408   4.763
   22OM     OM1   22   5.851   1.103   6.763
   23OM     OM1   23   5.642   1.136   6.899
   24OM     OM1   24   5.807   1.325   6.891
   25OM     OM1   25   5.860   1.094   7.028
   26OM     OM1   26   1.676   0.783   0.657
   27OM     OM1   27   1.736   0.585   0.820
   28OM     OM1   28   1.540   0.746   0.882
   29OM     OM1   29   1.780   0.845   0.879
   30OM     OM1   30   7.849   8.421   5.850
   31OM     OM1   31   7.985   8.263   6.014
   32OM     OM1   32   8.098   8.471   5.912
   33OM     OM1   33   8.628   0.217   6.176
   34OM     OM1   34   8.779   0.411   6.098
   35OM     OM1   35   8.879   0.168   6.157
   36OM     OM1   36   8.789   0.336   6.343
   37OM     OM1   37   3.322   9.495   6.641
   38OM     OM1   38   3.547   9.443   6.744
   39OM     OM1   39   3.343   9.543   6.889
   40OM     OM1   40   3.363   9.296   6.841
   41OM     OM1   41   1.367   9.419   3.048
   42OM     OM1   42   1.338   0.050   2.942
   43OM     OM1   43   1.158   9.552   3.115
   44OM     OM1   44   1.394   0.029   3.195
   45OM     OM1   45   8.070   8.354   0.953
   46OM     OM1   46   7.824   8.403   0.977
   47OM     OM1   47   7.945   8.390   1.199
   48OM     OM1   48   8.003   8.588   1.037
   49OM     OM1   49   1.547   9.196   8.029
   50OM     OM1   50   1.334   9.246   8.153
   51OM     OM1   51   1.366   9.004   8.058
   52OM     OM1   52   1.521   9.074   8.256
   53OM     OM1   53   7.057   8.859   6.501
   54OM     OM1   54   6.858   8.726   6.394
   55OM     OM1   55   7.019   8.608   6.571
   56OM     OM1   56   6.844   8.788   6.643
   57OM     OM1   57   3.872   0.005   1.024
   58OM     OM1   58   3.860   0.266   1.011
   59OM     OM1   59   3.972   0.139   1.210
   60OM     OM1   60   3.714   0.148   1.197
   61OM     OM1   61   1.819   8.277   1.420
   62OM     OM1   62   1.904   8.489   1.546
   63OM     OM1   63   1.774   8.524   1.339
   64OM     OM1   64   1.641   8.424   1.538
   65OM     OM1   65   1.223   8.350   3.136
   66OM     OM1   66   1.481   8.265   3.129
   67OM     OM1   67   1.416   8.505   3.199
   68OM     OM1   68   0.971   1.307   2.326
   69OM     OM1   69   0.716   1.363   2.352
   70OM     OM1   70   4.139   0.306   4.598
   71OM     OM1   71   4.191   0.052   4.691
   72OM     OM1   72   3.991   0.084   4.544
   73OM     OM1   73   4.234   0.122   4.449
   74OM     OM1   74   4.776   1.192   0.132
   75OM     OM1   75   4.949   1.238   9.547
   76OM     OM1   76   4.835   0.998   9.573
   77OM     OM1   77   4.702   1.216   9.489
   78OM     OM1   78   3.653   8.624   3.941
   79OM     OM1   79   3.551   8.622   4.179
   80OM     OM1   80   3.785   8.699   4.156
   81OM     OM1   81   3.608   8.858   4.054
   82OM     OM1   82   3.015   0.738   0.836
   83OM     OM1   83   2.765   0.710   0.901
   84OM     OM1   84   2.904   0.903   1.014
   85OM     OM1   85   2.942   0.656   1.075
   86OM     OM1   86   5.584   0.276   1.997
   87OM     OM1   87   5.938   0.549   1.806
   88OM     OM1   88   5.810   0.406   1.991
   89OM     OM1   89   6.031   0.314   1.875
   90OM     OM1   90   8.893   1.299   3.879
   91OM     OM1   91   8.870   1.214   4.125
   92OM     OM1   92   8.667   1.336   4.015
   93OM     OM1   93   0.226   9.077   1.506
   94OM     OM1   94   0.354   9.290   1.605
   95OM     OM1   95   0.462   9.150   1.420
   96OM     OM1   96   0.250   9.280   1.361
   97OM     OM1   97   5.872   9.564   1.390
   98OM     OM1   98   5.679   9.419   1.502
   99OM     OM1   99   5.830   9.303   1.332
  100OM     OM1  100   5.661   9.491   1.256
  101OM     OM1  101   0.572   0.300   3.154
  102OM     OM1  102   0.338   0.305   3.258
  103OM     OM1  103   0.403   0.112   3.094
  104OM     OM1  104   0.373   0.358   2.995
  105OM     OM1  105   0.400   0.499   2.090
  106OM     OM1  106   0.563   0.399   2.271
  107OM     OM1  107   0.590   0.647   2.193
  108OM     OM1  108   0.646   0.452   2.025
  109OM     OM1  109   7.637   0.471   5.051
  110OM     OM1  110   7.650   0.244   5.169
  111OM     OM1  111   7.488   0.420   5.263
  112OM     OM1  112   7.429   0.309   5.034
  113OM     OM1  113   9.540   9.184   0.195
  114OM     OM1  114   9.300   9.254   0.234
  115OM     OM1  115   9.455   9.441   0.150
  116OM     OM1  116   9.400   9.246   9.594
  117OM     OM1  117   4.084   9.557   2.263
  118OM     OM1  118   3.867   9.432   2.369
  119OM     OM1  119   4.106   9.419   2.462
  120OM     OM1  120   3.968   0.045   2.477
  121OM     OM1  121   1.115   1.307   2.547
  122OM     OM1  122   1.181   1.336   2.799
  123OM     OM1  123   0.591   8.355   6.835
  124OM     OM1  124   0.524   8.419   7.077
  125OM     OM1  125   0.355   8.286   6.951
  126OM     OM1  126   5.383   8.952   5.213
  127OM     OM1  127   5.584   9.076   5.105
  128OM     OM1  128   5.379   9.211   5.207
  129OM     OM1  129   5.349   9.069   4.987
  130OM     OM1  130   6.070   9.246   8.666
  131OM     OM1  131   5.954   9.091   8.843
  132OM     OM1  132   6.145   8.991   8.700
  133OM     OM1  133   5.913   9.054   8.589
  134OM     OM1  134   5.833   9.161   5.151
  135OM     OM1  135   5.779   9.074   4.919
  136OM     OM1  136   5.664   9.292   5.001
  137OM     OM1  137   1.291   1.262   5.071
  138OM     OM1  138   1.526   1.183   5.031
  139OM     OM1  139   1.430   1.167   5.275
  140OM     OM1  140   0.504   8.704   3.714
  141OM     OM1  141   0.580   8.751   3.962
  142OM     OM1  142   0.546   8.511   3.897
  143OM     OM1  143   0.745   8.641   3.786
  144OM     OM1  144   6.183   8.600   2.314
  145OM     OM1  145   6.079   8.362   2.282
  146OM     OM1  146   6.272   8.455   2.121
  147OM     OM1  147   6.314   8.368   2.367
  148OM     OM1  148   2.487   0.628   3.401
  149OM     OM1  149   2.182   0.300   3.435
  150OM     OM1  150   2.437   0.365   3.449
  151OM     OM1  151   2.363   0.112   3.449
  152OM     OM1  152   7.793   0.247   1.409
  153OM     OM1  153   7.579   0.155   1.487
  154OM     OM1  154   7.721   0.262   1.677
  155OM     OM1  155   7.624   0.421   1.504
  156OM     OM1  156   9.081   0.029   4.290
  157OM     OM1  157   8.916   9.516   4.442
  158OM     OM1  158   9.133   9.373   4.383
  159OM     OM1  159   4.999   9.019   2.474
  160OM     OM1  160   5.001   8.799   2.950
  161OM     OM1  161   5.065   8.732   2.696
  162OM     OM1  162   5.088   8.977   2.775
  163OM     OM1  163   8.202   0.579   7.601
  164OM     OM1  164   8.168   0.675   7.350
  165OM     OM1  165   8.288   0.813   7.537
  166OM     OM1  166   8.029   0.768   7.547
  167OM     OM1  167   1.535   8.604   1.299
  168OM     OM1  168   1.692   8.472   1.115
  169OM     OM1  169   1.727   8.724   1.164
  170OM     OM1  170   0.812   0.542   1.844
  171OM     OM1  171   0.784   0.786   1.928
  172OM     OM1  172   0.803   0.745   1.677
  173OM     OM1  173   1.018   0.708   1.841
  174OM     OM1  174   5.931   1.027   0.035
  175OM     OM1  175   5.814   1.055   0.254
  176OM     OM1  176   5.943   0.826   0.196
  177OM     OM1  177   5.715   0.876   0.094
  178OM     OM1  178   4.793   1.352   7.092
  179OM     OM1  179   4.697   1.188   7.267
  180OM     OM1  180   5.520   1.090   6.370
  181OM     OM1  181   5.299   1.040   6.238
  182OM     OM1  182   5.532   0.903   6.199
  183OM     OM1  183   5.383   0.867   6.406
  184OM     OM1  184   5.559   0.585   3.438
  185OM     OM1  185   5.398   0.410   3.320
  186OM     OM1  186   5.655   0.377   3.329
  187OM     OM1  187   5.540   0.566   3.178
  188OM     OM1  188   7.310   0.301   6.443
  189OM     OM1  189   7.319   0.283   6.705
  190OM     OM1  190   7.362   0.076   6.556
  191OM     OM1  191   7.119   0.177   6.571
  192OM     OM1  192   6.363   1.248   2.511
  193OM     OM1  193   8.654   0.467   0.792
  194OM     OM1  194   8.924   0.521   0.776
  195OM     OM1  195   8.759   0.648   0.929
  196OM     OM1  196   8.761   0.677   0.664
  197OM     OM1  197   7.182   9.016   3.343
  198OM     OM1  198   7.149   9.272   3.388
  199OM     OM1  199   7.361   9.150   3.476
  200OM     OM1  200   7.122   9.112   3.583
  201OM     OM1  201   3.453   0.779   3.847
  202OM     OM1  202   3.345   0.973   3.705
  203OM     OM1  203   3.502   0.803   3.602
  204OM     OM1  204   3.484   1.156   3.585
  205OM     OM1  205   2.434   1.305   2.307
  206OM     OM1  206   2.383   0.889   2.604
  207OM     OM1  207   2.369   1.117   2.480
  208OM     OM1  208   2.573   1.061   2.642
  209OM     OM1  209   3.466   0.332   8.084
  210OM     OM1  210   3.399   0.242   7.844
  211OM     OM1  211   3.243   0.415   7.974
  212OM     OM1  212   3.475   0.478   7.861
  213OM     OM1  213   7.074   9.401   5.181
  214OM     OM1  214   7.293   9.531   5.119
  215OM     OM1  215   7.447   9.326   5.070
  216OM     OM1  216   7.391   9.492   4.877
  217OM     OM1  217   7.914   8.574   1.375
  218OM     OM1  218   8.078   8.549   1.571
  219OM     OM1  219   8.139   8.711   1.384
  220OM     OM1  220   7.936   8.771   1.545
  221OM     OM1  221   8.608   8.261   8.977
  222OM     OM1  222   8.515   8.363   9.220
  223OM     OM1  223   8.483   8.482   8.987
  224OM     OM1  224   6.421   0.066   3.457
  225OM     OM1  225   6.335   9.548   3.241
  226OM     OM1  226   6.219   0.153   3.324
  227OM     OM1  227   6.188   9.537   3.452
  228OM     OM1  228   7.103   0.759   0.391
  229OM     OM1  229   6.987   0.950   0.530
  230OM     OM1  230   7.119   0.757   0.648
  231OM     OM1  231   6.886   0.715   0.540
  232OM     OM1  232   7.489   1.217   5.682
  233OM     OM1  233   7.334   1.246   5.473
  234OM     OM1  234   7.230   1.184   5.710
  235OM     OM1  235   6.350   0.439   0.966
  236OM     OM1  236   6.448   0.618   0.804
  237OM     OM1  237   6.218   0.506   0.764
  238OM     OM1  238   6.239   0.685   0.954
  239OM     OM1  239   3.460   8.257   1.191
  240OM     OM1  240   3.515   8.454   1.357
  241OM     OM1  241   3.699   8.305   1.255
  242OM     OM1  242   2.805   8.416   1.571
  243OM     OM1  243   2.576   8.447   1.454
  244OM     OM1  244   2.795   8.454   1.312
  245OM     OM1  245   9.522   1.457   1.010
  246OM     OM1  246   8.748   9.171   5.838
  247OM     OM1  247   8.506   9.138   5.953
  248OM     OM1  248   8.673   8.947   5.953
  249OM     OM1  249   8.727   9.156   6.096
  250OM     OM1  250   8.103   0.978   4.849
  251OM     OM1  251   8.139   1.023   5.174
  252OM     OM1  252   8.034   0.784   5.183
  253OM     OM1  253   8.241   0.844   5.035
  254OM     OM1  254   8.497   1.180   1.884
  255OM     OM1  255   8.442   1.226   1.632
  256OM     OM1  256   6.318   8.936   1.387
  257OM     OM1  257   6.251   9.131   1.549
  258OM     OM1  258   6.487   9.019   1.569
  259OM     OM1  259   6.265   8.882   1.627
  260OM     OM1  260   9.027   8.352   6.910
  261OM     OM1  261   9.212   8.545   6.856
  262OM     OM1  262   9.197   8.331   6.711
  263OM     OM1  263   9.274   8.319   6.966
  264OM     OM1  264   7.966   9.251   2.439
  265OM     OM1  265   8.083   9.147   2.641
  266OM     OM1  266   8.068   9.405   2.629
  267OM     OM1  267   7.854   9.260   2.681
  268OM     OM1  268   9.315   9.321   5.962
  269OM     OM1  269   9.338   9.194   6.186
  270OM     OM1  270   9.196   9.087   6.001
  271OM     OM1  271   9.113   9.308   6.131
  272OM     OM1  272   8.542   8.373   2.762
  273OM     OM1  273   8.608   8.538   2.559
  274OM     OM1  274   8.795   8.399   2.697
  275OM     OM1  275   5.282   0.706   3.521
  276OM     OM1  276   5.337   0.941   3.631
  277OM     OM1  277   5.302   0.729   3.781
  278OM     OM1  278   5.516   0.753   3.628
  279OM     OM1  279   7.720   9.196   1.105
  280OM     OM1  280   7.510   9.157   1.240
  281OM     OM1  281   7.661   8.941   1.165
  282OM     OM1  282   7.742   9.105   1.344
  283OM     OM1  283   6.948   1.229   3.590
  284OM     OM1  284   7.036   1.134   3.361
  285OM     OM1  285   7.193   1.255   3.533
  286OM     OM1  286   6.850   0.512   5.966
  287OM     OM1  287   6.841   0.679   6.152
  288OM     OM1  288   7.072   0.569   6.103
  289OM     OM1  289   6.895   0.413   6.204
  290OM     OM1  290   8.891   9.452   7.514
  291OM     OM1  291   8.816   9.199   7.476
  292OM     OM1  292   8.666   9.378   7.599
  293OM     OM1  293   8.842   0.046   7.344
  294OM     OM1  294   3.010   9.529   1.617
  295OM     OM1  295   3.034   0.181   1.546
  296OM     OM1  296   3.102   9.585   1.390
  297OM     OM1  297   3.156   9.355   1.285
  298OM     OM1  298   1.457   0.196   4.417
  299OM     OM1  299   1.677   0.304   4.320
  300OM     OM1  300   1.630   0.051   4.280
  301OM     OM1  301   1.501   0.227   4.152
  302OM     OM1  302   2.396   0.187   4.040
  303OM     OM1  303   2.217   0.287   3.891
  304OM     OM1  304   2.144   0.215   4.126
  305OM     OM1  305   2.312   0.409   4.118
  306OM     OM1  306   3.314   1.263   1.915
  307OM     OM1  307   3.355   1.057   1.737
  308OM     OM1  308   3.122   1.129   1.830
  309OM     OM1  309   3.253   1.282   1.661
  310OM     OM1  310   5.579   9.194   0.015
  311OM     OM1  311   5.637   9.443   0.035
  312OM     OM1  312   5.457   9.328   0.192
  313OM     OM1  313   5.718   9.288   0.221
  314OM     OM1  314   9.450   8.208   6.834
  315OM     OM1  315   9.508   8.423   6.981
  316OM     OM1  316   1.151   0.877   1.212
  317OM     OM1  317   1.169   0.716   1.410
  318OM     OM1  318   0.970   0.699   1.241
  319OM     OM1  319   0.976   0.906   1.402
  320OM     OM1  320   0.805   1.249   8.696
  321OM     OM1  321   6.755   0.198   6.188
  322OM     OM1  322   6.939   0.217   6.380
  323OM     OM1  323   7.014   0.206   6.129
  324OM     OM1  324   6.038   9.596   5.656
  325OM     OM1  325   5.942   9.467   5.461
  326OM     OM1  326   6.090   0.078   5.411
  327OM     OM1  327   5.838   0.088   5.500
  328OM     OM1  328   4.270   8.861   7.350
  329OM     OM1  329   4.196   9.102   7.276
  330OM     OM1  330   4.026   8.925   7.402
  331OM     OM1  331   4.114   8.887   7.159
  332OM     OM1  332   4.050   0.071   8.987
  333OM     OM1  333   4.081   0.283   8.835
  334OM     OM1  334   4.201   0.047   8.782
  335OM     OM1  335   4.277   0.194   8.985
  336OM     OM1  336   0.183   9.372   4.704
  337OM     OM1  337   0.029   9.554   4.798
  338OM     OM1  338   0.024   9.044   4.782
  339OM     OM1  339   0.080   9.346   4.950
  340OM     OM1  340   8.753   9.384   2.714
  341OM     OM1  341   8.912   9.280   2.897
  342OM     OM1  342   9.011   9.382   2.685
  343OM     OM1  343   8.883   9.162   2.651
  344OM     OM1  344   0.052   9.156   7.166
  345OM     OM1  345   0.072   8.919   7.054
  346OM     OM1  346   9.529   8.951   7.263
  347OM     OM1  347   0.189   8.960   7.281
  348OM     OM1  348   4.227   8.336   2.120
  349OM     OM1  349   4.280   8.519   1.944
  350OM     OM1  350   4.426   8.313   1.959
  351OM     OM1  351   4.664   8.424   1.967
  352OM     OM1  352   7.338   0.703   3.139
  353OM     OM1  353   7.206   0.582   3.336
  354OM     OM1  354   7.408   0.728   3.394
  355OM     OM1  355   7.449   0.506   3.255
  356OM     OM1  356   9.117   1.174   0.694
  357OM     OM1  357   9.370   1.265   0.648
  358OM     OM1  358   9.328   1.019   0.618
  359OM     OM1  359   9.202   1.183   0.462
  360OM     OM1  360   4.166   0.260   5.054
  361OM     OM1  361   4.417   0.271   5.143
  362OM     OM1  362   4.346   0.082   4.980
  363OM     OM1  363   4.259   0.091   5.229
  364OM     OM1  364   8.231   0.799   8.459
  365OM     OM1  365   8.412   0.934   8.582
  366OM     OM1  366   8.255   0.780   8.728
  367OM     OM1  367   8.421   0.668   8.578
  368OM     OM1  368   5.497   8.592   4.634
  369OM     OM1  369   5.572   8.492   4.408
  370OM     OM1  370   5.312   8.513   4.465
  371OM     OM1  371   8.915   8.571   7.695
  372OM     OM1  372   9.087   8.509   7.514
  373OM     OM1  373   9.154   8.685   7.685
  374OM     OM1  374   9.324   8.397   7.490
  375OM     OM1  375   4.600   8.755   8.953
  376OM     OM1  376   4.695   8.692   8.708
  377OM     OM1  377   4.318   8.518   8.889
  378OM     OM1  378   4.448   8.695   8.748
  379OM     OM1  379   1.308   0.119   6.287
  380OM     OM1  380   1.368   0.062   6.538
  381OM     OM1  381   1.297   0.312   6.441
  382OM     OM1  382   1.527   0.206   6.394
  383OM     OM1  383   9.034   1.146   2.996
  384OM     OM1  384   9.124   0.980   2.810
  385OM     OM1  385   9.020   0.885   3.024
  386OM     OM1  386   9.252   0.998   3.037
  387OM     OM1  387   8.043   0.105   7.722
  388OM     OM1  388   8.280   0.057   7.816
  389OM     OM1  389   8.086   0.055   7.987
  390OM     OM1  390   8.107   9.469   7.809
  391OM     OM1  391   0.539   9.428   9.503
  392OM     OM1  392   0.573   9.162   9.504
  393OM     OM1  393   0.337   9.269   9.439
  394OM     OM1  394   0.532   9.294   9.282
  395OM     OM1  395   7.506   1.253   2.344
  396OM     OM1  396   7.585   1.154   2.573
  397OM     OM1  397   3.855   9.019   8.862
  398OM     OM1  398   3.979   9.290   8.984
  399OM     OM1  399   4.102   8.997   8.829
  400OM     OM1  400   3.958   9.215   8.743
  401OM     OM1  401   8.653   0.112   0.894
  402OM     OM1  402   8.699   0.233   1.120
  403OM     OM1  403   8.894   0.249   0.946
  404OM     OM1  404   8.844   0.020   1.026
  405OM     OM1  405   9.594   0.142   4.316
  406OM     OM1  406   9.485   0.111   4.079
  407OM     OM1  407   0.377   0.192   4.066
  408OM     OM1  408   0.121   0.223   4.116
  409OM     OM1  409   6.371   0.065   9.075
  410OM     OM1  410   6.348   0.145   9.324
  411OM     OM1  411   6.253   9.522   9.246
  412OM     OM1  412   6.144   0.155   9.173
  413OM     OM1  413   6.672   8.636   4.479
  414OM     OM1  414   6.683   8.619   4.215
  415OM     OM1  415   6.899   8.586   4.348
  416OM     OM1  416   6.732   8.403   4.367
  417OM     OM1  417   0.241   1.188   0.114
  418OM     OM1  418   0.218   1.242   0.379
  419OM     OM1  419   0.449   1.185   0.254
  420OM     OM1  420   5.111   0.351   9.124
  421OM     OM1  421   5.196   0.177   9.290
  422OM     OM1  422   4.939   0.210   9.271
  423OM     OM1  423   5.059   0.101   9.067
  424OM     OM1  424   9.064   9.466   6.344
  425OM     OM1  425   8.984   9.536   6.108
  426OM     OM1  426   8.871   9.333   6.226
  427OM     OM1  427   2.040   9.300   0.158
  428OM     OM1  428   1.881   9.488   0.246
  429OM     OM1  429   1.859   9.404   0.003
  430OM     OM1  430   1.797   9.240   0.205
  431OM     OM1  431   5.093   8.931   4.113
  432OM     OM1  432   5.170   9.172   4.068
  433OM     OM1  433   5.134   9.101   4.310
  434OM     OM1  434   4.927   9.126   4.150
  435OM     OM1  435   8.476   8.577   7.817
  436OM     OM1  436   8.571   8.791   7.709
  437OM     OM1  437   8.745   8.853   7.524
  438OM     OM1  438   8.813   8.882   7.770
  439OM     OM1  439   5.272   1.231   8.416
  440OM     OM1  440   5.024   1.320   8.414
  441OM     OM1  441   1.530   8.265   6.691
  442OM     OM1  442   1.781   8.327   6.686
  443OM     OM1  443   1.595   8.497   6.579
  444OM     OM1  444   1.611   8.457   6.834
  445OM     OM1  445   9.038   9.374   1.891
  446OM     OM1  446   9.247   9.373   2.050
  447OM     OM1  447   9.273   9.428   1.789
  448OM     OM1  448   9.155   9.596   1.952
  449OM     OM1  449   8.203   8.307   2.455
  450OM     OM1  450   8.088   8.280   2.212
  451OM     OM1  451   7.243   0.422   5.350
  452OM     OM1  452   7.043   0.306   5.226
  453OM     OM1  453   6.991   0.435   5.439
  454OM     OM1  454   7.128   0.208   5.447
  455OM     OM1  455   2.227   0.938   8.066
  456OM     OM1  456   2.021   0.849   8.184
  457OM     OM1  457   2.211   0.945   8.332
  458OM     OM1  458   2.068   1.105   8.203
  459OM     OM1  459   8.117   1.282   4.362
  460OM     OM1  460   8.268   1.380   4.565
  461OM     OM1  461   4.856   9.202   3.289
  462OM     OM1  462   4.601   9.255   3.291
  463OM     OM1  463   4.725   9.188   3.071
  464OM     OM1  464   4.673   9.013   3.270
  465OM     OM1  465   5.763   0.386   5.910
  466OM     OM1  466   5.727   0.191   6.092
  467OM     OM1  467   5.686   0.454   6.132
  468OM     OM1  468   5.928   0.348   6.113
  469OM     OM1  469   8.911   8.493   6.664
  470OM     OM1  470   9.025   8.693   6.786
  471OM     OM1  471   8.803   8.578   6.890
  472OM     OM1  472   8.797   8.726   6.674
  473OM     OM1  473   2.313   8.383   3.862
  474OM     OM1  474   2.242   8.417   3.621
  475OM     OM1  475   0.525   9.516   3.438
  476OM     OM1  476   0.740   0.053   3.457
  477OM     OM1  477   0.663   9.575   3.224
  478OM     OM1  478   0.752   9.399   3.397
  479OM     OM1  479   7.765   1.007   1.383
  480OM     OM1  480   7.419   1.105   1.421
  481OM     OM1  481   7.639   1.038   0.999
  482OM     OM1  482   7.754   1.173   1.188
  483OM     OM1  483   2.015   0.090   5.361
  484OM     OM1  484   2.005   0.214   5.131
  485OM     OM1  485   1.795   0.089   5.209
  486OM     OM1  486   1.868   0.311   5.337
  487OM     OM1  487   5.137   9.190   7.479
  488OM     OM1  488   5.028   9.215   7.715
  489OM     OM1  489   5.289   9.244   7.688
  490OM     OM1  490   5.179   9.013   7.675
  491OM     OM1  491   6.658   8.311   3.791
  492OM     OM1  492   6.626   8.547   3.699
  493OM     OM1  493   6.666   8.513   3.966
  494OM     OM1  494   6.854   8.502   3.787
  495OM     OM1  495   0.458   8.979   1.220
  496OM     OM1  496   0.150   9.011   0.942
  497OM     OM1  497   0.408   8.965   0.968
  498OM     OM1  498   0.309   9.026   0.733
  499OM     OM1  499   8.129   1.136   1.214
  500OM     OM1  500   3.494   8.971   9.447
  501OM     OM1  501   3.533   9.222   9.514
  502OM     OM1  502   3.630   9.124   9.297
  503OM     OM1  503   3.726   9.054   9.543
  504OM     OM1  504   6.442   9.366   5.606
  505OM     OM1  505   6.394   9.114   5.622
  506OM     OM1  506   6.371   9.233   5.392
  507OM     OM1  507   6.207   9.287   5.607
  508OM     OM1  508   9.536   0.123   3.042
  509OM     OM1  509   9.466   0.306   2.864
  510OM     OM1  510   9.343   0.287   3.103
  511OM     OM1  511   9.311   0.102   2.924
  512OM     OM1  512   0.830   8.265   6.803
  513OM     OM1  513   0.776   8.533   6.816
  514OM     OM1  514   0.730   8.395   6.610
  515OM     OM1  515   3.148   1.081   5.116
  516OM     OM1  516   2.955   1.102   5.291
  517OM     OM1  517   2.915   1.140   5.029
  518OM     OM1  518   5.587   1.195   5.133
  519OM     OM1  519   5.731   1.369   5.009
  520OM     OM1  520   5.561   1.215   4.871
  521OM     OM1  521   6.458   1.233   7.678
  522OM     OM1  522   6.328   1.010   7.667
  523OM     OM1  523   6.611   1.308   7.865
  524OM     OM1  524   6.204   1.210   7.753
  525OM     OM1  525   7.460   0.554   8.519
  526OM     OM1  526   7.513   0.638   8.284
  527OM     OM1  527   7.571   0.388   8.341
  528OM     OM1  528   7.720   0.570   8.435
  529OM     OM1  529   1.184   9.305   4.233
  530OM     OM1  530   1.159   9.256   3.982
  531OM     OM1  531   0.968   9.401   4.102
  532OM     OM1  532   0.998   9.150   4.153
  533OM     OM1  533   3.933   9.201   9.577
  534OM     OM1  534   3.955   8.952   9.506
  535OM     OM1  535   3.906   8.989   0.141
  536OM     OM1  536   3.474   1.059   6.351
  537OM     OM1  537   3.505   1.030   6.612
  538OM     OM1  538   3.712   1.017   6.459
  539OM     OM1  539   1.575   8.858   8.690
  540OM     OM1  540   1.330   8.881   8.606
  541OM     OM1  541   1.459   9.086   8.707
  542OM     OM1  542   1.383   8.884   8.864
  543OM     OM1  543   5.557   0.180   3.463
  544OM     OM1  544   5.746   0.144   3.281
  545OM     OM1  545   5.804   0.246   3.510
  546OM     OM1  546   8.809   9.112   6.342
  547OM     OM1  547   8.619   9.286   6.289
  548OM     OM1  548   7.974   0.575   3.984
  549OM     OM1  549   7.945   0.712   4.206
  550OM     OM1  550   7.822   0.797   3.998
  551OM     OM1  551   7.747   0.585   4.126
  552OM     OM1  552   5.103   9.553   6.192
  553OM     OM1  553   4.944   9.572   6.402
  554OM     OM1  554   5.091   9.360   6.378
  555OM     OM1  555   4.868   0.176   6.561
  556OM     OM1  556   8.482   1.138   8.423
  557OM     OM1  557   8.440   1.143   8.169
  558OM     OM1  558   8.674   1.213   8.269
  559OM     OM1  559   6.797   8.484   1.297
  560OM     OM1  560   6.760   8.423   1.037
  561OM     OM1  561   6.968   8.563   1.122
  562OM     OM1  562   2.863   8.888   2.494
  563OM     OM1  563   2.696   8.722   2.409
  564OM     OM1  564   2.863   8.827   2.235
  565OM     OM1  565   2.675   8.977   2.333
  566OM     OM1  566   6.211   8.532   6.817
  567OM     OM1  567   6.343   8.711   6.953
  568OM     OM1  568   6.335   8.471   7.049
  569OM     OM1  569   6.467   8.513   6.829
  570OM     OM1  570   9.144   0.573   7.905
  571OM     OM1  571   9.391   0.568   7.996
  572OM     OM1  572   9.183   0.657   8.142
  573OM     OM1  573   9.226   0.400   8.082
  574OM     OM1  574   7.133   0.245   3.974
  575OM     OM1  575   7.367   0.181   4.061
  576OM     OM1  576   7.330   0.218   3.796
  577OM     OM1  577   7.342   0.415   3.949
  578OM     OM1  578   1.100   1.098   4.973
  579OM     OM1  579   1.087   1.213   5.202
  580OM     OM1  580   0.384   8.775   7.382
  581OM     OM1  581   0.159   8.711   7.311
  582OM     OM1  582   0.199   8.882   7.524
  583OM     OM1  583   6.072   8.363   9.107
  584OM     OM1  584   5.882   8.442   9.270
  585OM     OM1  585   8.055   9.222   5.841
  586OM     OM1  586   8.185   9.128   5.647
  587OM     OM1  587   8.257   9.064   5.892
  588OM     OM1  588   8.052   8.953   5.778
  589OM     OM1  589   1.715   0.006   9.357
  590OM     OM1  590   1.495   0.037   9.237
  591OM     OM1  591   1.552   0.173   9.463
  592OM     OM1  592   1.485   9.530   9.475
  593OM     OM1  593   2.275   9.167   5.611
  594OM     OM1  594   2.519   9.246   5.628
  595OM     OM1  595   2.432   9.065   5.797
  596OM     OM1  596   2.357   9.304   5.822
  597OM     OM1  597   9.042   1.049   5.126
  598OM     OM1  598   9.093   1.293   5.056
  599OM     OM1  599   9.228   1.098   4.950
  600OM     OM1  600   8.983   1.135   4.873
  601OM     OM1  601   3.508   1.343   0.286
  602OM     OM1  602   3.681   1.150   0.260
  603OM     OM1  603   3.738   1.366   0.388
  604OM     OM1  604   7.614   9.054   0.006
  605OM     OM1  605   7.639   9.115   0.270
  606OM     OM1  606   7.831   9.153   0.115
  607OM     OM1  607   7.609   9.298   0.080
  608OM     OM1  608   7.926   8.909   0.118
  609OM     OM1  609   8.077   9.115   0.051
  610OM     OM1  610   8.015   9.081   0.293
  611OM     OM1  611   6.188   0.789   3.234
  612OM     OM1  612   6.048   1.014   3.247
  613OM     OM1  613   5.966   0.815   3.391
  614OM     OM1  614   5.958   0.802   3.123
  615OM     OM1  615   1.646   9.311   2.426
  616OM     OM1  616   1.678   9.556   2.310
  617OM     OM1  617   1.511   9.522   2.509
  618OM     OM1  618   1.773   9.502   2.542
  619OM     OM1  619   6.797   1.260   1.334
  620OM     OM1  620   6.604   1.322   1.495
  621OM     OM1  621   6.775   1.131   1.564
  622OM     OM1  622   0.138   0.307   7.047
  623OM     OM1  623   9.522   0.170   6.975
  624OM     OM1  624   9.572   0.401   6.869
  625OM     OM1  625   0.117   0.189   6.815
  626OM     OM1  626   4.524   8.854   9.196
  627OM     OM1  627   4.654   8.989   9.029
  628OM     OM1  628   4.789   8.790   9.124
  629OM     OM1  629   8.476   9.523   7.716
  630OM     OM1  630   8.498   9.254   7.737
  631OM     OM1  631   8.406   9.363   7.529
  632OM     OM1  632   4.801   9.081   0.008
  633OM     OM1  633   4.855   9.074   0.274
  634OM     OM1  634   4.998   9.208   0.111
  635OM     OM1  635   4.756   9.289   0.157
  636OM     OM1  636   8.710   0.057   6.556
  637OM     OM1  637   8.890   0.086   6.745
  638OM     OM1  638   8.962   0.056   6.493
  639OM     OM1  639   8.849   0.280   6.578
  640OM     OM1  640   0.406   0.172   0.713
  641OM     OM1  641   0.512   0.192   0.477
  642OM     OM1  642   0.328   0.016   0.507
  643OM     OM1  643   0.561   9.584   0.625
  644OM     OM1  644   8.863   9.433   2.071
  645OM     OM1  645   8.883   9.190   1.989
  646OM     OM1  646   8.776   9.372   1.832
  647OM     OM1  647   7.809   0.402   7.710
  648OM     OM1  648   7.639   0.232   7.814
  649OM     OM1  649   7.578   0.456   7.673
  650OM     OM1  650   7.664   0.235   7.558
  651OM     OM1  651   9.454   8.514   0.749
  652OM     OM1  652   0.057   8.371   0.706
  653OM     OM1  653   0.081   8.596   0.838
  654OM     OM1  654   9.556   8.395   0.945
  655OM     OM1  655   8.437   0.159   7.631
  656OM     OM1  656   8.540   0.120   7.864
  657OM     OM1  657   8.519   0.138   1.612
  658OM     OM1  658   8.265   0.201   1.639
  659OM     OM1  659   8.346   0.050   1.442
  660OM     OM1  660   8.070   0.361   1.558
  661OM     OM1  661   0.312   0.740   8.846
  662OM     OM1  662   0.090   0.638   8.918
  663OM     OM1  663   0.081   0.570   9.164
  664OM     OM1  664   0.266   0.483   8.798
  665OM     OM1  665   9.581   0.351   1.253
  666OM     OM1  666   9.487   0.513   1.069
  667OM     OM1  667   0.126   0.478   1.429
  668OM     OM1  668   0.212   0.255   1.335
  669OM     OM1  669   0.424   8.488   5.300
  670OM     OM1  670   0.638   8.474   5.147
  671OM     OM1  671   5.621   9.153   4.250
  672OM     OM1  672   5.662   9.041   4.022
  673OM     OM1  673   5.828   9.321   4.234
  674OM     OM1  674   5.423   9.101   4.090
  675OM     OM1  675   0.515   1.287   4.238
  676OM     OM1  676   0.735   1.418   4.168
  677OM     OM1  677   0.570   1.315   3.994
  678OM     OM1  678   3.410   0.069   3.698
  679OM     OM1  679   3.318   0.015   3.461
  680OM     OM1  680   3.306   9.431   3.632
  681OM     OM1  681   3.383   0.146   3.938
  682OM     OM1  682   8.945   9.150   5.656
  683OM     OM1  683   9.138   8.882   5.841
  684OM     OM1  684   9.162   9.152   5.498
  685OM     OM1  685   9.063   8.930   5.595
  686OM     OM1  686   7.510   8.573   2.220
  687OM     OM1  687   7.351   8.592   2.015
  688OM     OM1  688   7.329   8.760   2.201
  689OM     OM1  689   7.550   8.771   2.060
  690OM     OM1  690   8.540   9.540   0.726
  691OM     OM1  691   8.422   0.327   0.836
  692OM     OM1  692   8.396   0.076   0.886
  693OM     OM1  693   0.443   8.777   4.189
  694OM     OM1  694   0.632   8.688   4.343
  695OM     OM1  695   0.383   8.603   4.382
  696OM     OM1  696   0.517   8.538   4.163
  697OM     OM1  697   2.827   8.694   6.880
  698OM     OM1  698   2.596   8.620   6.951
  699OM     OM1  699   2.722   8.822   7.072
  700OM     OM1  700   2.614   8.850   6.832
  701OM     OM1  701   5.881   0.705   0.412
  702OM     OM1  702   6.112   0.809   0.392
  703OM     OM1  703   6.051   0.591   0.248
  704OM     OM1  704   3.341   0.115   4.532
  705OM     OM1  705   3.408   0.377   4.530
  706OM     OM1  706   3.527   0.197   4.377
  707OM     OM1  707   3.281   0.282   4.336
  708OM     OM1  708   8.140   1.189   8.958
  709OM     OM1  709   8.211   0.936   8.927
  710OM     OM1  710   8.210   1.047   9.157
  711OM     OM1  711   7.984   0.993   9.037
  712OM     OM1  712   9.007   0.479   3.405
  713OM     OM1  713   8.979   0.222   3.365
  714OM     OM1  714   9.051   0.382   3.172
  715OM     OM1  715   8.824   0.442   3.086
  716OM     OM1  716   3.537   0.952   0.346
  717OM     OM1  717   3.706   1.048   0.503
  718OM     OM1  718   3.602   1.055   0.744
  719OM     OM1  719   3.662   8.498   0.669
  720OM     OM1  720   3.460   8.373   0.552
  721OM     OM1  721   3.707   8.332   0.475
  722OM     OM1  722   0.197   1.242   8.078
  723OM     OM1  723   9.556   1.076   8.479
  724OM     OM1  724   0.053   1.145   8.258
  725OM     OM1  725   3.345   0.746   6.708
  726OM     OM1  726   3.540   0.690   6.856
  727OM     OM1  727   3.455   0.938   6.852
  728OM     OM1  728   3.293   0.762   6.955
  729OM     OM1  729   2.681   8.633   3.603
  730OM     OM1  730   2.557   8.735   3.390
  731OM     OM1  731   2.527   8.832   3.630
  732OM     OM1  732   2.743   8.881   3.505
  733OM     OM1  733   2.155   8.920   5.967
  734OM     OM1  734   1.938   9.063   5.975
  735OM     OM1  735   2.039   8.976   5.747
  736OM     OM1  736   2.147   9.177   5.884
  737OM     OM1  737   4.058   9.502   3.643
  738OM     OM1  738   4.273   9.525   3.502
  739OM     OM1  739   4.294   9.555   3.758
  740OM     OM1  740   4.172   0.129   3.607
  741OM     OM1  741   9.274   8.474   8.884
  742OM     OM1  742   9.306   8.465   9.145
  743OM     OM1  743   9.444   8.639   9.005
  744OM     OM1  744   9.499   8.385   9.003
  745OM     OM1  745   5.153   0.473   1.032
  746OM     OM1  746   5.375   0.615   0.975
  747OM     OM1  747   5.212   0.527   0.788
  748OM     OM1  748   5.137   0.722   0.938
  749OM     OM1  749   3.285   0.617   9.297
  750OM     OM1  750   3.534   0.608   9.211
  751OM     OM1  751   3.488   0.782   9.394
  752OM     OM1  752   3.372   0.816   9.166
  753OM     OM1  753   7.113   9.348   8.039
  754OM     OM1  754   6.866   9.429   8.071
  755OM     OM1  755   7.061   9.589   8.103
  756OM     OM1  756   7.016   9.390   8.286
  757OM     OM1  757   8.978   9.131   5.168
  758OM     OM1  758   8.957   8.882   5.224
  759OM     OM1  759   8.746   9.021   5.226
  760OM     OM1  760   8.932   9.063   5.413
  761OM     OM1  761   3.460   9.380   5.500
  762OM     OM1  762   3.274   9.440   5.336
  763OM     OM1  763   3.444   9.243   5.283
  764OM     OM1  764   3.535   9.485   5.275
  765OM     OM1  765   1.706   9.603   7.766
  766OM     OM1  766   1.598   9.373   7.842
  767OM     OM1  767   1.467   9.552   7.701
  768OM     OM1  768   1.505   9.590   7.950
  769OM     OM1  769   0.147   8.688   4.452
  770OM     OM1  770   0.122   8.916   4.570
  771OM     OM1  771   9.517   8.814   4.484
  772OM     OM1  772   0.080   8.879   4.296
  773OM     OM1  773   1.079   8.573   3.158
  774OM     OM1  774   1.105   8.444   2.933
  775OM     OM1  775   0.958   8.344   3.121
  776OM     OM1  776   4.509   9.493   5.015
  777OM     OM1  777   4.339   9.483   4.812
  778OM     OM1  778   4.086   9.432   4.788
  779OM     OM1  779   1.760   1.254   1.211
  780OM     OM1  780   1.635   1.033   1.250
  781OM     OM1  781   1.889   1.042   1.279
  782OM     OM1  782   1.790   1.057   1.035
  783OM     OM1  783   3.609   8.375   9.426
  784OM     OM1  784   3.432   8.496   9.571
  785OM     OM1  785   3.382   8.442   9.310
  786OM     OM1  786   8.430   0.061   8.241
  787OM     OM1  787   8.224   9.573   8.363
  788OM     OM1  788   8.452   9.451   8.377
  789OM     OM1  789   8.320   9.441   8.152
  790OM     OM1  790   9.430   8.538   4.850
  791OM     OM1  791   9.415   8.478   4.605
  792OM     OM1  792   9.226   8.392   4.765
  793OM     OM1  793   6.554   1.222   3.861
  794OM     OM1  794   9.373   0.973   5.122
  795OM     OM1  795   9.429   0.943   4.871
  796OM     OM1  796   9.467   1.180   4.991
  797OM     OM1  797   6.412   1.071   5.113
  798OM     OM1  798   6.190   1.171   5.010
  799OM     OM1  799   6.424   1.230   4.911
  800OM     OM1  800   3.304   1.220   5.721
  801OM     OM1  801   3.087   1.363   5.703
  802OM     OM1  802   4.358   0.628   2.745
  803OM     OM1  803   4.149   0.780   2.746
  804OM     OM1  804   4.378   0.872   2.842
  805OM     OM1  805   4.248   0.705   2.975
  806OM     OM1  806   1.102   0.184   3.513
  807OM     OM1  807   1.294   0.057   3.420
  808OM     OM1  808   1.136   9.545   3.594
  809OM     OM1  809   1.275   0.200   3.710
  810OM     OM1  810   6.938   9.426   0.796
  811OM     OM1  811   6.746   9.414   0.609
  812OM     OM1  812   6.948   9.568   0.565
  813OM     OM1  813   6.792   0.025   0.746
  814OM     OM1  814   8.440   1.190   4.017
  815OM     OM1  815   8.510   1.167   4.252
  816OM     OM1  816   8.427   0.950   4.124
  817OM     OM1  817   8.254   1.132   4.199
  818OM     OM1  818   4.484   0.373   0.881
  819OM     OM1  819   4.562   0.612   0.798
  820OM     OM1  820   4.348   0.518   0.684
  821OM     OM1  821   4.578   0.406   0.644
  822OM     OM1  822   8.852   9.363   1.018
  823OM     OM1  823   9.031   9.524   1.158
  824OM     OM1  824   9.042   9.483   0.901
  825OM     OM1  825   9.440   0.831   1.915
  826OM     OM1  826   0.094   0.808   1.850
  827OM     OM1  827   9.290   1.033   1.977
  828OM     OM1  828   9.366   0.998   1.738
  829OM     OM1  829   7.114   0.064   1.940
  830OM     OM1  830   6.993   9.451   1.832
  831OM     OM1  831   7.179   9.567   1.712
  832OM     OM1  832   6.939   0.079   1.741
  833OM     OM1  833   0.960   8.763   8.333
  834OM     OM1  834   1.044   8.935   8.160
  835OM     OM1  835   1.185   8.885   8.381
  836OM     OM1  836   0.951   9.018   8.384
  837OM     OM1  837   1.097   1.280   1.499
  838OM     OM1  838   1.042   1.242   1.744
  839OM     OM1  839   0.904   1.108   1.552
  840OM     OM1  840   3.158   1.394   9.262
  841OM     OM1  841   6.310   0.045   0.610
  842OM     OM1  842   6.362   0.225   0.807
  843OM     OM1  843   6.550   0.102   0.701
  844OM     OM1  844   6.412   0.278   0.555
  845OM     OM1  845   2.488   8.261   8.534
  846OM     OM1  846   1.895   9.095   0.401
  847OM     OM1  847   1.737   8.976   0.232
  848OM     OM1  848   1.643   9.148   0.398
  849OM     OM1  849   3.588   0.246   3.791
  850OM     OM1  850   3.540   9.506   3.558
  851OM     OM1  851   3.581   9.599   3.874
  852OM     OM1  852   7.212   8.628   4.606
  853OM     OM1  853   7.290   8.450   4.434
  854OM     OM1  854   7.447   8.538   4.640
  855OM     OM1  855   7.413   8.681   4.436
  856OM     OM1  856   6.934   0.805   8.927
  857OM     OM1  857   6.967   1.044   9.043
  858OM     OM1  858   7.158   0.874   9.036
  859OM     OM1  859   6.948   0.826   9.184
  860OM     OM1  860   6.139   0.031   6.658
  861OM     OM1  861   5.886   0.056   6.665
  862OM     OM1  862   6.006   9.562   6.868
  863OM     OM1  863   5.988   9.423   6.638
  864OM     OM1  864   1.233   1.180   3.253
  865OM     OM1  865   1.111   1.022   3.087
  866OM     OM1  866   1.318   0.868   3.069
  867OM     OM1  867   1.275   1.209   3.011
  868OM     OM1  868   9.597   1.154   8.726
  869OM     OM1  869   0.177   1.172   8.554
  870OM     OM1  870   0.103   0.931   8.630
  871OM     OM1  871   7.273   0.772   9.247
  872OM     OM1  872   7.182   0.785   9.505
  873OM     OM1  873   7.436   0.743   9.445
  874OM     OM1  874   7.243   0.569   9.397
  875OM     OM1  875   4.853   0.236   8.540
  876OM     OM1  876   4.655   0.146   8.687
  877OM     OM1  877   4.602   0.257   8.461
  878OM     OM1  878   4.705   0.410   8.644
  879OM     OM1  879   2.378   0.140   0.905
  880OM     OM1  880   2.184   0.323   0.891
  881OM     OM1  881   2.415   0.379   0.794
  882OM     OM1  882   2.264   0.190   0.681
  883OM     OM1  883   2.137   8.837   8.702
  884OM     OM1  884   2.024   8.914   8.929
  885OM     OM1  885   2.165   8.688   8.896
  886OM     OM1  886   2.277   8.937   8.908
  887OM     OM1  887   7.054   1.211   8.030
  888OM     OM1  888   6.938   1.075   7.840
  889OM     OM1  889   6.812   1.261   8.004
  890OM     OM1  890   5.991   0.154   2.802
  891OM     OM1  891   6.039   9.529   2.689
  892OM     OM1  892   6.205   0.111   2.646
  893OM     OM1  893   5.975   0.137   2.540
  894OM     OM1  894   5.466   8.663   5.718
  895OM     OM1  895   5.308   8.400   5.503
  896OM     OM1  896   5.597   8.588   5.926
  897OM     OM1  897   5.508   8.498   5.354
  898OM     OM1  898   2.601   9.201   8.231
  899OM     OM1  899   2.427   8.996   8.179
  900OM     OM1  900   2.592   9.073   8.000
  901OM     OM1  901   2.394   9.226   8.080
  902OM     OM1  902   0.068   8.836   8.769
  903OM     OM1  903   0.175   8.611   8.739
  904OM     OM1  904   0.325   8.811   8.813
  905OM     OM1  905   0.238   8.823   8.572
  906OM     OM1  906   0.373   8.636   7.606
  907OM     OM1  907   0.661   8.909   7.906
  908OM     OM1  908   0.773   8.689   7.839
  909OM     OM1  909   0.519   8.690   7.804
  910OM     OM1  910   6.602   0.553   6.587
  911OM     OM1  911   6.728   0.608   6.801
  912OM     OM1  912   6.663   0.368   6.762
  913OM     OM1  913   6.470   0.562   6.808
  914OM     OM1  914   7.436   8.632   3.376
  915OM     OM1  915   7.491   8.871   3.471
  916OM     OM1  916   7.554   8.665   3.595
  917OM     OM1  917   7.284   8.718   3.560
  918OM     OM1  918   4.804   9.095   7.775
  919OM     OM1  919   4.910   9.229   7.965
  920OM     OM1  920   4.827   9.365   7.762
  921OM     OM1  921   2.696   9.374   0.114
  922OM     OM1  922   2.778   9.185   0.254
  923OM     OM1  923   2.848   9.193   9.595
  924OM     OM1  924   2.612   9.130   0.065
  925OM     OM1  925   2.342   0.497   5.785
  926OM     OM1  926   2.391   0.743   5.878
  927OM     OM1  927   2.553   0.545   5.941
  928OM     OM1  928   2.302   0.559   6.031
  929OM     OM1  929   6.182   0.136   1.761
  930OM     OM1  930   6.313   0.021   1.563
  931OM     OM1  931   6.255   0.263   1.540
  932OM     OM1  932   6.054   0.091   1.536
  933OM     OM1  933   2.263   8.982   7.977
  934OM     OM1  934   2.018   9.034   7.925
  935OM     OM1  935   2.136   8.815   7.822
  936OM     OM1  936   2.192   9.055   7.731
  937OM     OM1  937   3.218   1.158   1.159
  938OM     OM1  938   3.252   1.191   1.419
  939OM     OM1  939   3.421   1.041   1.294
  940OM     OM1  940   3.409   1.302   1.256
  941OM     OM1  941   6.171   8.664   6.344
  942OM     OM1  942   6.183   8.723   6.103
  943OM     OM1  943   6.187   8.462   6.178
  944OM     OM1  944   6.398   8.618   6.193
  945OM     OM1  945   0.264   0.654   6.276
  946OM     OM1  946   0.153   0.408   6.253
  947OM     OM1  947   0.087   0.578   6.441
  948OM     OM1  948   0.020   0.634   6.201
  949OM     OM1  949   4.779   8.563   6.897
  950OM     OM1  950   4.973   8.895   6.664
  951OM     OM1  951   4.953   8.763   6.899
  952OM     OM1  952   5.032   8.642   6.693
  953OM     OM1  953   8.020   8.523   3.565
  954OM     OM1  954   8.073   8.753   3.687
  955OM     OM1  955   7.943   8.740   3.458
  956OM     OM1  956   7.819   8.667   3.666
  957OM     OM1  957   7.507   9.027   5.876
  958OM     OM1  958   7.473   9.281   5.886
  959OM     OM1  959   7.705   8.897   5.769
  960OM     OM1  960   7.727   9.230   5.922
  961OM     OM1  961   2.332   0.263   5.654
  962OM     OM1  962   2.110   0.382   5.728
  963OM     OM1  963   2.268   0.483   5.539
  964OM     OM1  964   6.584   1.290   5.445
  965OM     OM1  965   6.402   1.268   5.619
  966OM     OM1  966   7.360   0.725   9.000
  967OM     OM1  967   7.567   0.752   8.845
  968OM     OM1  968   7.497   0.521   8.934
  969OM     OM1  969   7.360   0.644   8.744
  970OM     OM1  970   9.140   9.164   7.089
  971OM     OM1  971   9.115   9.394   7.187
  972OM     OM1  972   8.950   9.208   7.260
  973OM     OM1  973   8.931   9.296   7.017
  974OM     OM1  974   1.669   0.808   2.761
  975OM     OM1  975   1.844   1.018   2.703
  976OM     OM1  976   1.584   1.041   2.684
  977OM     OM1  977   1.704   1.013   2.917
  978OM     OM1  978   0.131   1.236   5.388
  979OM     OM1  979   0.040   1.072   5.562
  980OM     OM1  980   0.122   1.298   5.652
  981OM     OM1  981   2.359   0.270   7.720
  982OM     OM1  982   2.527   0.464   7.752
  983OM     OM1  983   2.407   0.148   7.490
  984OM     OM1  984   2.415   0.016   7.707
  985OM     OM1  985   1.876   8.383   2.187
  986OM     OM1  986   1.032   1.262   3.065
  987OM     OM1  987   1.099   0.785   2.967
  988OM     OM1  988   1.227   0.972   2.854
  989OM     OM1  989   8.631   8.739   5.360
  990OM     OM1  990   8.577   8.560   5.183
  991OM     OM1  991   8.794   8.530   5.331
  992OM     OM1  992   8.789   8.703   5.148
  993OM     OM1  993   4.156   8.724   6.959
  994OM     OM1  994   3.973   8.672   7.153
  995OM     OM1  995   4.223   8.663   7.204
  996OM     OM1  996   3.851   8.920   7.593
  997OM     OM1  997   3.696   9.108   7.697
  998OM     OM1  998   3.923   9.158   7.583
  999OM     OM1  999   3.718   9.095   7.434
 1000OM     OM1 1000   7.167   9.350   6.323
 1001OM     OM1 1001   7.413   9.353   6.229
 1002OM     OM1 1002   7.291   9.578   6.236
 1003OM     OM1 1003   7.364   9.449   6.457
 1004OM     OM1 1004   5.359   0.203   8.414
 1005OM     OM1 1005   5.125   0.276   8.513
 1006OM     OM1 1006   5.348   0.433   8.508
 1007OM     OM1 1007   5.327   0.224   8.670
 1008OM     OM1 1008   3.501   0.391   1.900
 1009OM     OM1 1009   3.248   0.500   1.873
 1010OM     OM1 1010   3.447   0.398   2.259
 1011OM     OM1 1011   3.303   0.325   2.051
 1012OM     OM1 1012   1.883   0.485   5.821
 1013OM     OM1 1013   1.803   0.444   6.076
 1014OM     OM1 1014   2.043   0.513   6.015
 1015OM     OM1 1015   1.847   0.686   5.990
 1016OM     OM1 1016   1.073   0.856   4.305
 1017OM     OM1 1017   1.044   1.105   4.382
 1018OM     OM1 1018   1.284   1.005   4.380
 1019OM     OM1 1019   1.097   0.916   4.550
 1020OM     OM1 1020   7.901   8.301   3.579
 1021OM     OM1 1021   8.008   8.364   3.345
 1022OM     OM1 1022   8.165   8.302   3.531
 1023OM     OM1 1023   5.942   0.091   8.854
 1024OM     OM1 1024   6.153   0.256   8.829
 1025OM     OM1 1025   5.905   0.343   8.781
 1026OM     OM1 1026   5.987   0.287   9.016
 1027OM     OM1 1027   6.550   1.227   6.540
 1028OM     OM1 1028   6.674   1.102   6.743
 1029OM     OM1 1029   6.411   1.072   6.682
 1030OM     OM1 1030   0.574   8.890   8.858
 1031OM     OM1 1031   0.782   9.035   8.802
 1032OM     OM1 1032   0.768   8.795   8.697
 1033OM     OM1 1033   0.807   8.816   8.947
 1034OM     OM1 1034   0.228   1.379   4.592
 1035OM     OM1 1035   0.413   1.270   4.737
 1036OM     OM1 1036   4.548   1.195   6.405
 1037OM     OM1 1037   4.799   1.141   6.404
 1038OM     OM1 1038   4.687   1.150   6.636
 1039OM     OM1 1039   4.637   0.955   6.467
 1040OM     OM1 1040   0.355   1.260   8.724
 1041OM     OM1 1041   0.416   1.075   8.562
 1042OM     OM1 1042   0.394   1.321   8.478
 1043OM     OM1 1043   0.615   1.281   8.351
 1044OM     OM1 1044   0.618   1.379   8.599
 1045OM     OM1 1045   3.328   9.367   4.235
 1046OM     OM1 1046   3.281   9.520   4.013
 1047OM     OM1 1047   3.320   9.259   4.000
 1048OM     OM1 1048   3.512   9.426   4.054
 1049OM     OM1 1049   4.235   9.249   8.970
 1050OM     OM1 1050   4.128   9.450   9.103
 1051OM     OM1 1051   4.138   9.199   9.195
 1052OM     OM1 1052   0.689   9.394   6.868
 1053OM     OM1 1053   0.487   9.277   6.973
 1054OM     OM1 1054   0.455   9.492   6.817
 1055OM     OM1 1055   0.513   9.267   6.708
 1056OM     OM1 1056   6.764   0.779   2.044
 1057OM     OM1 1057   6.827   0.630   1.837
 1058OM     OM1 1058   6.832   0.538   2.086
 1059OM     OM1 1059   7.013   0.713   2.009
 1060OM     OM1 1060   6.832   0.746   8.690
 1061OM     OM1 1061   6.999   0.580   8.791
 1062OM     OM1 1062   6.946   0.686   8.471
 1063OM     OM1 1063   5.000   8.928   7.523
 1064OM     OM1 1064   5.002   8.822   7.752
 1065OM     OM1 1065   5.205   8.773   7.585
 1066OM     OM1 1066   9.129   0.702   6.738
 1067OM     OM1 1067   9.218   0.789   6.530
 1068OM     OM1 1068   8.963   0.850   6.587
 1069OM     OM1 1069   9.152   0.967   6.714
 1070OM     OM1 1070   9.044   0.593   7.664
 1071OM     OM1 1071   8.907   0.472   7.862
 1072OM     OM1 1072   8.935   0.731   7.848
 1073OM     OM1 1073   4.521   1.140   6.145
 1074OM     OM1 1074   4.369   0.947   6.033
 1075OM     OM1 1075   4.322   1.193   5.993
 1076OM     OM1 1076   4.527   1.082   5.881
 1077OM     OM1 1077   5.615   1.033   7.386
 1078OM     OM1 1078   5.618   0.803   7.511
 1079OM     OM1 1079   5.387   0.923   7.459
 1080OM     OM1 1080   5.536   0.807   7.278
 1081OM     OM1 1081   1.802   8.581   6.949
 1082OM     OM1 1082   1.840   8.564   7.205
 1083OM     OM1 1083   2.020   8.462   7.058
 1084OM     OM1 1084   1.991   8.718   7.058
 1085OM     OM1 1085   0.943   8.975   7.304
 1086OM     OM1 1086   1.007   9.116   7.089
 1087OM     OM1 1087   0.764   9.123   7.197
 1088OM     OM1 1088   0.963   9.245   7.308
 1089OM     OM1 1089   0.763   9.494   5.111
 1090OM     OM1 1090   0.808   0.140   5.092
 1091OM     OM1 1091   1.022   9.593   5.123
 1092OM     OM1 1092   0.873   0.024   5.317
 1093OM     OM1 1093   8.102   9.274   9.451
 1094OM     OM1 1094   8.095   9.371   0.090
 1095OM     OM1 1095   8.303   9.251   0.015
 1096OM     OM1 1096   8.460   8.928   0.512
 1097OM     OM1 1097   8.319   8.838   0.313
 1098OM     OM1 1098   8.480   9.044   0.278
 1099OM     OM1 1099   8.255   9.063   0.413
 1100OM     OM1 1100   3.381   9.344   8.537
 1101OM     OM1 1101   3.583   9.464   8.650
 1102OM     OM1 1102   3.390   9.597   8.518
 1103OM     OM1 1103   3.563   9.447   8.386
 1104OM     OM1 1104   0.748   0.373   3.336
 1105OM     OM1 1105   0.799   0.179   3.158
 1106OM     OM1 1106   0.786   0.428   3.085
 1107OM     OM1 1107   4.600   8.940   7.692
 1108OM     OM1 1108   4.667   8.936   7.945
 1109OM     OM1 1109   4.569   9.148   7.846
 1110OM     OM1 1110   5.637   8.190   3.567
 1111OM     OM1 1111   5.441   8.343   3.501
 1112OM     OM1 1112   5.490   8.288   3.761
 1113OM     OM1 1113   8.892   0.661   0.032
 1114OM     OM1 1114   8.998   0.799   0.224
 1115OM     OM1 1115   8.940   0.411   0.013
 1116OM     OM1 1116   8.690   0.489   0.038
 1117OM     OM1 1117   0.215   1.063   1.053
 1118OM     OM1 1118   0.339   1.268   1.148
 1119OM     OM1 1119   0.350   1.233   0.889
 1120OM     OM1 1120   0.121   1.290   0.987
 1121OM     OM1 1121   8.419   8.557   0.100
 1122OM     OM1 1122   8.452   8.509   0.360
 1123OM     OM1 1123   8.598   8.392   0.165
 1124OM     OM1 1124   8.629   8.650   0.228
 1125OM     OM1 1125   3.736   0.362   2.039
 1126OM     OM1 1126   3.707   0.244   1.819
 1127OM     OM1 1127   3.726   0.503   1.821
 1128OM     OM1 1128   8.930   8.839   4.967
 1129OM     OM1 1129   9.041   8.658   5.116
 1130OM     OM1 1130   4.734   9.557   6.568
 1131OM     OM1 1131   4.891   9.390   6.222
 1132OM     OM1 1132   4.730   0.100   6.354
 1133OM     OM1 1133   3.080   9.529   3.395
 1134OM     OM1 1134   2.845   9.580   3.507
 1135OM     OM1 1135   2.855   9.463   3.276
 1136OM     OM1 1136   2.930   9.337   3.493
 1137OM     OM1 1137   3.480   8.424   7.576
 1138OM     OM1 1138   7.526   9.536   0.515
 1139OM     OM1 1139   7.286   9.599   0.507
 1140OM     OM1 1140   7.357   9.386   0.648
 1141OM     OM1 1141   7.393   0.011   0.743
 1142OM     OM1 1142   7.546   0.247   4.713
 1143OM     OM1 1143   7.681   0.062   4.863
 1144OM     OM1 1144   7.517   9.600   4.678
 1145OM     OM1 1145   7.751   0.119   4.620
 1146OM     OM1 1146   3.890   8.575   5.556
 1147OM     OM1 1147   4.089   8.698   5.663
 1148OM     OM1 1148   4.117   8.446   5.642
 1149OM     OM1 1149   3.932   8.532   5.809
 1150OM     OM1 1150   2.493   0.068   3.228
 1151OM     OM1 1151   2.653   0.199   3.066
 1152OM     OM1 1152   2.594   0.004   3.454
 1153OM     OM1 1153   5.228   0.922   4.923
 1154OM     OM1 1154   5.030   1.003   5.077
 1155OM     OM1 1155   5.273   1.018   5.171
 1156OM     OM1 1156   5.172   0.782   5.131
 1157OM     OM1 1157   5.956   8.640   6.497
 1158OM     OM1 1158   5.985   8.866   6.380
 1159OM     OM1 1159   6.149   8.802   6.563
 1160OM     OM1 1160   6.655   9.287   8.868
 1161OM     OM1 1161   6.997   9.240   8.526
 1162OM     OM1 1162   6.887   9.253   8.771
 1163OM     OM1 1163   6.847   9.463   8.913
 1164OM     OM1 1164   5.741   0.279   4.556
 1165OM     OM1 1165   5.949   0.126   4.625
 1166OM     OM1 1166   5.716   0.111   4.750
 1167OM     OM1 1167   5.735   0.036   4.496
 1168OM     OM1 1168   0.701   1.125   0.290
 1169OM     OM1 1169   0.858   0.958   0.426
 1170OM     OM1 1170   0.746   1.162   0.542
 1171OM     OM1 1171   0.947   1.185   0.351
 1172OM     OM1 1172   0.630   9.008   4.952
 1173OM     OM1 1173   0.824   9.065   5.112
 1174OM     OM1 1174   0.587   9.068   5.202
 1175OM     OM1 1175   0.655   9.263   5.038
 1176OM     OM1 1176   0.709   9.425   4.161
 1177OM     OM1 1177   0.795   9.446   3.917
 1178OM     OM1 1178   0.859   0.026   4.098
 1179OM     OM1 1179   7.237   8.372   1.138
 1180OM     OM1 1180   7.282   8.128   1.226
 1181OM     OM1 1181   1.927   0.190   7.135
 1182OM     OM1 1182   2.098   0.394   7.119
 1183OM     OM1 1183   1.893   0.366   6.946
 1184OM     OM1 1184   2.097   0.222   6.931
 1185OM     OM1 1185   8.815   0.735   8.394
 1186OM     OM1 1186   8.974   0.734   8.600
 1187OM     OM1 1187   8.958   0.527   8.444
 1188OM     OM1 1188   9.073   0.745   8.361
 1189OM     OM1 1189   8.367   9.374   6.965
 1190OM     OM1 1190   8.325   9.585   6.802
 1191OM     OM1 1191   8.483   9.380   6.743
 1192OM     OM1 1192   8.241   9.165   7.030
 1193OM     OM1 1193   2.675   8.959   0.305
 1194OM     OM1 1194   2.475   8.806   0.311
 1195OM     OM1 1195   2.643   8.794   0.104
 1196OM     OM1 1196   2.712   8.699   0.331
 1197OM     OM1 1197   7.556   9.559   5.059
 1198OM     OM1 1198   7.796   0.047   5.106
 1199OM     OM1 1199   0.653   0.533   9.540
 1200OM     OM1 1200   0.724   0.631   9.078
 1201OM     OM1 1201   0.807   0.556   9.334
 1202OM     OM1 1202   0.600   0.685   9.299
 1203OM     OM1 1203   7.274   9.107   5.950
 1204OM     OM1 1204   7.557   8.777   5.961
 1205OM     OM1 1205   7.454   8.820   5.737
 1206OM     OM1 1206   1.848   1.236   4.144
 1207OM     OM1 1207   2.027   1.349   4.301
 1208OM     OM1 1208   1.352   0.816   1.058
 1209OM     OM1 1209   1.372   1.011   1.236
 1210OM     OM1 1210   1.224   1.032   1.016
 1211OM     OM1 1211   8.902   9.089   7.902
 1212OM     OM1 1212   8.881   9.275   7.715
 1213OM     OM1 1213   8.759   9.304   7.939
 1214OM     OM1 1214   9.018   9.329   7.930
 1215OM     OM1 1215   7.752   0.984   2.058
 1216OM     OM1 1216   7.999   1.073   2.103
 1217OM     OM1 1217   7.959   0.825   2.037
 1218OM     OM1 1218   7.867   0.900   2.270
 1219OM     OM1 1219   5.446   8.796   5.934
 1220OM     OM1 1220   5.281   8.757   5.566
 1221OM     OM1 1221   5.339   8.556   5.924
 1222OM     OM1 1222   3.043   8.264   5.763
 1223OM     OM1 1223   3.169   8.280   5.989
 1224OM     OM1 1224   3.287   8.176   5.768
 1225OM     OM1 1225   4.531   0.498   6.466
 1226OM     OM1 1226   4.546   0.248   6.452
 1227OM     OM1 1227   4.441   0.368   6.675
 1228OM     OM1 1228   4.692   0.355   6.627
 1229OM     OM1 1229   0.428   8.649   1.586
 1230OM     OM1 1230   0.622   8.495   1.644
 1231OM     OM1 1231   0.381   8.409   1.688
 1232OM     OM1 1232   0.478   8.596   1.837
 1233OM     OM1 1233   4.964   0.194   2.686
 1234OM     OM1 1234   4.719   0.270   2.698
 1235OM     OM1 1235   4.790   0.018   2.773
 1236OM     OM1 1236   4.758   0.081   2.530
 1237OM     OM1 1237   9.228   8.463   4.008
 1238OM     OM1 1238   9.479   8.406   3.948
 1239OM     OM1 1239   9.299   8.451   3.766
 1240OM     OM1 1240   7.178   8.421   1.916
 1241OM     OM1 1241   7.089   8.642   2.015
 1242OM     OM1 1242   7.231   8.653   1.798
 1243OM     OM1 1243   8.053   9.211   7.867
 1244OM     OM1 1244   8.201   9.283   7.663
 1245OM     OM1 1245   8.282   9.323   7.918
 1246OM     OM1 1246   2.091   9.022   4.511
 1247OM     OM1 1247   2.105   9.237   4.374
 1248OM     OM1 1248   2.186   9.026   4.257
 1249OM     OM1 1249   2.320   9.140   4.465
 1250OM     OM1 1250   3.495   9.261   0.377
 1251OM     OM1 1251   3.564   9.452   0.548
 1252OM     OM1 1252   3.311   9.391   0.516
 1253OM     OM1 1253   3.479   9.230   0.632
 1254OM     OM1 1254   8.368   0.247   9.195
 1255OM     OM1 1255   8.396   0.508   9.158
 1256OM     OM1 1256   8.163   0.436   9.219
 1257OM     OM1 1257   8.329   0.406   9.402
 1258OM     OM1 1258   1.798   1.108   1.990
 1259OM     OM1 1259   1.415   1.284   6.837
 1260OM     OM1 1260   1.177   1.262   6.801
 1261OM     OM1 1261   1.324   1.192   6.587
 1262OM     OM1 1262   1.335   1.045   6.801
 1263OM     OM1 1263   4.904   8.609   3.105
 1264OM     OM1 1264   4.811   8.846   3.138
 1265OM     OM1 1265   4.765   8.716   2.916
 1266OM     OM1 1266   6.718   0.910   4.652
 1267OM     OM1 1267   6.503   0.963   4.510
 1268OM     OM1 1268   6.498   0.827   4.742
 1269OM     OM1 1269   6.548   1.089   4.732
 1270OM     OM1 1270   5.441   0.499   0.217
 1271OM     OM1 1271   5.571   0.653   0.054
 1272OM     OM1 1272   5.369   0.752   0.170
 1273OM     OM1 1273   5.330   0.560   9.599
 1274OM     OM1 1274   6.050   9.552   7.124
 1275OM     OM1 1275   6.247   9.548   7.293
 1276OM     OM1 1276   6.231   9.377   7.076
 1277OM     OM1 1277   6.078   9.342   7.272
 1278OM     OM1 1278   3.122   9.560   0.597
 1279OM     OM1 1279   2.948   0.138   0.654
 1280OM     OM1 1280   2.914   0.013   0.448
 1281OM     OM1 1281   3.130   0.172   0.455
 1282OM     OM1 1282   1.120   0.085   7.387
 1283OM     OM1 1283   1.064   0.042   7.645
 1284OM     OM1 1284   1.172   0.426   7.510
 1285OM     OM1 1285   1.261   0.185   7.580
 1286OM     OM1 1286   8.251   8.492   8.538
 1287OM     OM1 1287   8.187   8.659   8.355
 1288OM     OM1 1288   8.468   8.327   8.527
 1289OM     OM1 1289   4.618   8.742   6.975
 1290OM     OM1 1290   4.591   8.643   6.734
 1291OM     OM1 1291   4.521   8.504   6.951
 1292OM     OM1 1292   4.629   8.806   4.097
 1293OM     OM1 1293   4.726   8.743   4.326
 1294OM     OM1 1294   4.488   8.659   4.269
 1295OM     OM1 1295   4.688   8.554   4.142
 1296OM     OM1 1296   0.404   0.095   1.413
 1297OM     OM1 1297   0.455   0.270   1.223
 1298OM     OM1 1298   0.303   0.069   1.177
 1299OM     OM1 1299   1.669   8.900   2.992
 1300OM     OM1 1300   1.479   8.738   3.089
 1301OM     OM1 1301   1.508   8.986   3.163
 1302OM     OM1 1302   1.421   8.933   2.925
 1303OM     OM1 1303   0.614   0.508   8.607
 1304OM     OM1 1304   0.535   0.781   8.971
 1305OM     OM1 1305   0.701   0.663   8.814
 1306OM     OM1 1306   0.864   0.514   8.675
 1307OM     OM1 1307   3.524   9.102   4.042
 1308OM     OM1 1308   3.357   9.054   3.841
 1309OM     OM1 1309   3.292   9.017   4.094
 1310OM     OM1 1310   4.503   0.555   6.205
 1311OM     OM1 1311   4.401   0.706   6.391
 1312OM     OM1 1312   4.653   0.705   6.373
 1313OM     OM1 1313   9.336   0.756   9.467
 1314OM     OM1 1314   9.152   0.695   0.038
 1315OM     OM1 1315   9.229   0.522   9.463
 1316OM     OM1 1316   9.387   0.589   0.063
 1317OM     OM1 1317   4.148   0.731   6.796
 1318OM     OM1 1318   4.360   0.787   6.917
 1319OM     OM1 1319   4.321   0.541   6.828
 1320OM     OM1 1320   4.357   0.728   6.649
 1321OM     OM1 1321   5.639   0.324   0.203
 1322OM     OM1 1322   5.884   0.387   0.258
 1323OM     OM1 1323   5.842   0.162   0.144
 1324OM     OM1 1324   5.757   0.196   0.393
 1325OM     OM1 1325   9.456   8.496   2.113
 1326OM     OM1 1326   9.299   8.567   1.923
 1327OM     OM1 1327   9.425   8.338   1.912
 1328OM     OM1 1328   9.565   8.545   1.878
 1329OM     OM1 1329   8.225   8.306   4.025
 1330OM     OM1 1330   8.280   8.270   4.280
 1331OM     OM1 1331   8.021   8.377   3.883
 1332OM     OM1 1332   6.108   0.552   4.822
 1333OM     OM1 1333   6.194   0.751   4.671
 1334OM     OM1 1334   6.226   0.497   4.601
 1335OM     OM1 1335   6.366   0.604   4.790
 1336OM     OM1 1336   3.666   8.555   3.067
 1337OM     OM1 1337   3.926   8.508   2.993
 1338OM     OM1 1338   3.724   8.527   2.823
 1339OM     OM1 1339   3.819   8.733   2.937
 1340OM     OM1 1340   5.636   9.481   9.383
 1341OM     OM1 1341   5.840   9.365   9.490
 1342OM     OM1 1342   5.804   0.008   9.540
 1343OM     OM1 1343   7.920   8.275   7.319
 1344OM     OM1 1344   7.675   8.215   7.240
 1345OM     OM1 1345   8.124   0.367   8.679
 1346OM     OM1 1346   7.934   0.526   8.581
 1347OM     OM1 1347   7.873   0.305   8.701
 1348OM     OM1 1348   7.974   0.496   8.847
 1349OM     OM1 1349   0.213   0.709   4.437
 1350OM     OM1 1350   0.225   0.437   4.449
 1351OM     OM1 1351   0.425   0.592   4.368
 1352OM     OM1 1352   0.299   0.240   4.305
 1353OM     OM1 1353   7.137   0.302   2.811
 1354OM     OM1 1354   6.690   0.317   2.623
 1355OM     OM1 1355   6.904   0.338   2.919
 1356OM     OM1 1356   6.916   0.216   2.695
 1357OM     OM1 1357   2.160   8.886   5.169
 1358OM     OM1 1358   1.837   8.727   4.840
 1359OM     OM1 1359   1.967   9.062   5.169
 1360OM     OM1 1360   2.000   8.906   4.960
 1361OM     OM1 1361   1.851   9.033   7.737
 1362OM     OM1 1362   1.894   9.100   7.480
 1363OM     OM1 1363   1.711   8.925   7.553
 1364OM     OM1 1364   1.683   9.181   7.601
 1365OM     OM1 1365   5.581   0.475   2.426
 1366OM     OM1 1366   5.766   0.651   2.478
 1367OM     OM1 1367   5.498   0.710   2.437
 1368OM     OM1 1368   5.575   0.597   2.654
 1369OM     OM1 1369   4.427   8.390   3.631
 1370OM     OM1 1370   4.373   8.417   3.883
 1371OM     OM1 1371   4.563   8.569   3.765
 1372OM     OM1 1372   4.594   8.314   3.822
 1373OM     OM1 1373   3.928   0.702   3.210
 1374OM     OM1 1374   4.152   0.575   3.176
 1375OM     OM1 1375   3.952   0.460   3.307
 1376OM     OM1 1376   6.185   9.386   8.840
 1377OM     OM1 1377   6.415   9.286   8.758
 1378OM     OM1 1378   6.310   9.199   8.976
 1379OM     OM1 1379   6.408   9.445   8.957
 1380OM     OM1 1380   4.006   8.327   8.720
 1381OM     OM1 1381   4.159   8.321   8.934
 1382OM     OM1 1382   4.252   8.231   8.720
 1383OM     OM1 1383   1.616   8.722   2.023
 1384OM     OM1 1384   1.749   8.949   2.010
 1385OM     OM1 1385   1.872   8.727   1.978
 1386OM     OM1 1386   1.705   8.824   1.794
 1387OM     OM1 1387   2.600   1.082   0.734
 1388OM     OM1 1388   2.754   1.088   0.945
 1389OM     OM1 1389   2.846   0.986   0.718
 1390OM     OM1 1390   2.688   0.896   6.721
 1391OM     OM1 1391   2.618   0.632   6.703
 1392OM     OM1 1392   2.814   0.716   6.851
 1393OM     OM1 1393   2.823   0.721   6.582
 1394OM     OM1 1394   4.585   8.879   6.338
 1395OM     OM1 1395   4.576   9.088   6.494
 1396OM     OM1 1396   4.745   8.898   6.537
 1397OM     OM1 1397   4.497   8.850   6.589
 1398OM     OM1 1398   3.851   8.931   3.289
 1399OM     OM1 1399   3.737   8.998   3.522
 1400OM     OM1 1400   3.709   9.145   3.309
 1401OM     OM1 1401   3.587   8.916   3.327
 1402OM     OM1 1402   2.781   8.996   8.578
 1403OM     OM1 1403   2.475   9.347   8.403
 1404OM     OM1 1404   2.555   8.872   8.538
 1405OM     OM1 1405   2.588   9.125   8.469
 1406OM     OM1 1406   2.376   8.399   4.564
 1407OM     OM1 1407   2.562   8.281   4.407
 1408OM     OM1 1408   2.622   8.403   4.636
 1409OM     OM1 1409   3.274   9.131   6.161
 1410OM     OM1 1410   3.196   9.268   6.362
 1411OM     OM1 1411   3.117   9.494   6.269
 1412OM     OM1 1412   3.000   9.277   6.186
 1413OM     OM1 1413   8.914   8.359   2.136
 1414OM     OM1 1414   8.726   8.204   2.040
 1415OM     OM1 1415   7.863   0.711   2.464
 1416OM     OM1 1416   7.732   0.943   2.491
 1417OM     OM1 1417   7.648   0.758   2.329
 1418OM     OM1 1418   7.398   9.099   2.836
 1419OM     OM1 1419   7.316   9.232   2.617
 1420OM     OM1 1420   7.423   8.998   2.609
 1421OM     OM1 1421   7.180   9.034   2.729
 1422OM     OM1 1422   5.646   8.836   8.221
 1423OM     OM1 1423   5.770   8.753   8.426
 1424OM     OM1 1424   5.908   8.901   8.255
 1425OM     OM1 1425   5.733   9.012   8.402
 1426OM     OM1 1426   3.895   9.239   0.466
 1427OM     OM1 1427   4.152   9.249   0.476
 1428OM     OM1 1428   4.041   9.359   0.270
 1429OM     OM1 1429   4.012   9.473   0.497
 1430OM     OM1 1430   2.507   9.404   7.812
 1431OM     OM1 1431   2.385   9.576   7.961
 1432OM     OM1 1432   2.615   0.037   7.882
 1433OM     OM1 1433   0.066   9.153   5.138
 1434OM     OM1 1434   0.064   9.413   5.194
 1435OM     OM1 1435   9.464   9.294   5.098
 1436OM     OM1 1436   0.042   0.178   8.943
 1437OM     OM1 1437   9.476   0.255   9.131
 1438OM     OM1 1438   9.403   0.086   8.947
 1439OM     OM1 1439   9.429   0.339   8.892
 1440OM     OM1 1440   3.120   0.178   3.432
 1441OM     OM1 1441   3.294   0.358   3.358
 1442OM     OM1 1442   3.180   0.371   3.591
 1443OM     OM1 1443   4.427   8.405   4.282
 1444OM     OM1 1444   4.279   8.229   4.386
 1445OM     OM1 1445   3.496   9.183   2.522
 1446OM     OM1 1446   3.355   9.359   2.636
 1447OM     OM1 1447   3.497   9.418   2.421
 1448OM     OM1 1448   3.630   9.378   2.639
 1449OM     OM1 1449   7.065   8.350   7.865
 1450OM     OM1 1450   7.166   8.247   7.653
 1451OM     OM1 1451   5.260   9.165   4.762
 1452OM     OM1 1452   5.136   8.956   4.874
 1453OM     OM1 1453   5.121   9.187   4.988
 1454OM     OM1 1454   4.220   8.410   2.626
 1455OM     OM1 1455   3.997   8.299   2.713
 1456OM     OM1 1456   4.147   8.438   2.877
 1457OM     OM1 1457   7.926   0.368   9.187
 1458OM     OM1 1458   7.979   0.552   9.370
 1459OM     OM1 1459   7.992   0.597   9.101
 1460OM     OM1 1460   8.465   0.643   2.378
 1461OM     OM1 1461   8.277   0.901   2.676
 1462OM     OM1 1462   8.501   0.778   2.627
 1463OM     OM1 1463   8.225   0.382   2.615
 1464OM     OM1 1464   6.504   9.369   9.582
 1465OM     OM1 1465   6.530   0.022   9.575
 1466OM     OM1 1466   6.288   9.517   0.031
 1467OM     OM1 1467   6.494   9.517   0.191
 1468OM     OM1 1468   5.969   8.491   6.704
 1469OM     OM1 1469   5.949   8.504   7.062
 1470OM     OM1 1470   6.086   8.325   6.884
 1471OM     OM1 1471   5.909   8.253   7.058
 1472OM     OM1 1472   9.242   0.504   8.984
 1473OM     OM1 1473   9.195   0.597   9.213
 1474OM     OM1 1474   9.017   0.644   9.015
 1475OM     OM1 1475   9.237   0.762   9.018
 1476OM     OM1 1476   2.043   1.445   6.976
 1477OM     OM1 1477   1.847   1.283   7.021
 1478OM     OM1 1478   7.726   0.989   3.000
 1479OM     OM1 1479   7.515   0.886   3.096
 1480OM     OM1 1480   7.727   0.935   3.254
 1481OM     OM1 1481   7.581   1.134   3.172
 1482OM     OM1 1482   4.254   9.459   6.625
 1483OM     OM1 1483   4.502   9.506   6.698
 1484OM     OM1 1484   4.283   0.057   6.773
 1485OM     OM1 1485   4.317   9.423   6.869
 1486OM     OM1 1486   2.543   0.560   3.877
 1487OM     OM1 1487   2.753   0.638   3.753
 1488OM     OM1 1488   2.717   0.373   3.795
 1489OM     OM1 1489   2.578   0.509   3.619
 1490OM     OM1 1490   5.367   0.604   8.077
 1491OM     OM1 1491   5.319   0.832   8.178
 1492OM     OM1 1492   5.153   0.632   8.222
 1493OM     OM1 1493   5.390   0.630   8.339
 1494OM     OM1 1494   5.749   8.633   1.953
 1495OM     OM1 1495   5.811   8.413   1.823
 1496OM     OM1 1496   5.571   8.437   1.908
 1497OM     OM1 1497   5.642   8.603   1.724
 1498OM     OM1 1498   8.587   0.381   3.490
 1499OM     OM1 1499   8.241   0.104   3.453
 1500OM     OM1 1500   8.406   0.258   3.328
 1501OM     OM1 1501   8.605   0.131   3.434
 1502OM     OM1 1502   6.939   0.599   8.146
 1503OM     OM1 1503   7.128   0.705   8.280
 1504OM     OM1 1504   7.188   0.614   8.031
 1505OM     OM1 1505   7.130   0.453   8.228
 1506OM     OM1 1506   5.011   0.495   7.213
 1507OM     OM1 1507   5.084   0.734   7.219
 1508OM     OM1 1508   5.026   0.618   7.452
 1509OM     OM1 1509   5.243   0.555   7.319
 1510OM     OM1 1510   0.110   0.848   0.931
 1511OM     OM1 1511   0.082   0.600   0.907
 1512OM     OM1 1512   0.330   0.746   0.875
 1513OM     OM1 1513   0.151   0.730   0.698
 1514OM     OM1 1514   4.471   0.872   8.250
 1515OM     OM1 1515   4.410   0.666   8.415
 1516OM     OM1 1516   4.449   0.637   8.159
 1517OM     OM1 1517   4.237   0.771   8.267
 1518OM     OM1 1518   7.214   0.778   5.279
 1519OM     OM1 1519   7.002   0.631   5.280
 1520OM     OM1 1520   6.995   0.878   5.202
 1521OM     OM1 1521   7.114   0.690   5.050
 1522OM     OM1 1522   2.967   8.997   3.899
 1523OM     OM1 1523   2.895   9.249   3.954
 1524OM     OM1 1524   2.975   9.187   3.711
 1525OM     OM1 1525   2.750   9.102   3.800
 1526OM     OM1 1526   8.857   1.239   6.298
 1527OM     OM1 1527   8.832   1.002   6.423
 1528OM     OM1 1528   8.825   1.017   6.165
 1529OM     OM1 1529   9.055   1.066   6.295
 1530OM     OM1 1530   7.450   9.021   1.725
 1531OM     OM1 1531   7.332   9.118   1.522
 1532OM     OM1 1532   7.493   8.906   1.487
 1533OM     OM1 1533   7.594   9.131   1.548
 1534OM     OM1 1534   0.147   9.048   8.475
 1535OM     OM1 1535   0.083   9.084   8.224
 1536OM     OM1 1536   0.015   8.870   8.359
 1537OM     OM1 1537   9.501   9.107   8.408
 1538OM     OM1 1538   3.397   9.183   3.617
 1539OM     OM1 1539   3.532   8.965   3.675
 1540OM     OM1 1540   3.276   8.960   3.603
 1541OM     OM1 1541   2.088   8.426   4.172
 1542OM     OM1 1542   1.836   8.409   4.109
 1543OM     OM1 1543   4.019   9.321   5.256
 1544OM     OM1 1544   4.182   9.494   5.374
 1545OM     OM1 1545   4.064   9.299   5.510
 1546OM     OM1 1546   4.256   9.251   5.338
 1547OM     OM1 1547   2.217   0.168   0.421
 1548OM     OM1 1548   2.462   0.187   0.332
 1549OM     OM1 1549   2.283   0.301   0.193
 1550OM     OM1 1550   2.282   0.048   0.192
 1551OM     OM1 1551   4.814   9.429   2.324
 1552OM     OM1 1552   4.676   9.414   2.112
 1553OM     OM1 1553   4.807   0.030   2.141
 1554OM     OM1 1554   4.629   9.597   2.314
 1555OM     OM1 1555   0.560   0.390   0.303
 1556OM     OM1 1556   0.795   0.304   0.341
 1557OM     OM1 1557   0.772   0.538   0.236
 1558OM     OM1 1558   0.695   0.340   0.091
 1559OM     OM1 1559   8.120   9.491   4.296
 1560OM     OM1 1560   8.013   9.533   4.075
 1561OM     OM1 1561   8.056   0.135   4.221
 1562OM     OM1 1562   8.263   0.019   4.120
 1563OM     OM1 1563   7.815   1.100   7.892
 1564OM     OM1 1564   7.816   0.849   7.991
 1565OM     OM1 1565   8.034   0.959   7.915
 1566OM     OM1 1566   7.915   1.058   8.127
 1567OM     OM1 1567   5.343   9.064   2.073
 1568OM     OM1 1568   5.599   8.767   2.222
 1569OM     OM1 1569   5.365   8.850   2.219
 1570OM     OM1 1570   5.422   9.073   2.330
 1571OM     OM1 1571   4.969   0.629   1.275
 1572OM     OM1 1572   4.970   0.726   1.507
 1573OM     OM1 1573   5.091   0.489   1.458
 1574OM     OM1 1574   5.201   0.705   1.379
 1575OM     OM1 1575   8.554   0.704   0.070
 1576OM     OM1 1576   8.407   0.904   0.149
 1577OM     OM1 1577   8.420   0.493   0.024
 1578OM     OM1 1578   8.554   0.521   0.253
 1579OM     OM1 1579   6.556   0.562   5.446
 1580OM     OM1 1580   6.307   0.625   5.486
 1581OM     OM1 1581   6.506   0.793   5.564
 1582OM     OM1 1582   6.456   0.572   5.685
 1583OM     OM1 1583   2.825   1.076   2.592
 1584OM     OM1 1584   2.718   0.846   2.665
 1585OM     OM1 1585   2.731   1.032   2.843
 1586OM     OM1 1586   0.907   9.333   7.007
 1587OM     OM1 1587   0.866   9.575   6.940
 1588OM     OM1 1588   0.979   9.603   6.713
 1589OM     OM1 1589   5.320   0.593   5.888
 1590OM     OM1 1590   5.194   0.416   6.049
 1591OM     OM1 1591   5.118   0.456   5.800
 1592OM     OM1 1592   5.082   0.633   5.994
 1593OM     OM1 1593   6.318   8.833   5.918
 1594OM     OM1 1594   6.465   8.883   5.713
 1595OM     OM1 1595   6.332   8.653   5.719
 1596OM     OM1 1596   6.284   0.369   3.449
 1597OM     OM1 1597   6.037   0.298   3.410
 1598OM     OM1 1598   6.209   0.379   3.200
 1599OM     OM1 1599   0.146   0.201   6.098
 1600OM     OM1 1600   0.113   0.160   6.349
 1601OM     OM1 1601   0.352   0.243   6.269
 1602OM     OM1 1602   0.087   9.013   0.348
 1603OM     OM1 1603   0.168   9.233   0.254
 1604OM     OM1 1604   9.571   9.222   0.441
 1605OM     OM1 1605   2.596   9.605   6.586
 1606OM     OM1 1606   2.409   9.508   6.725
 1607OM     OM1 1607   2.642   9.480   6.821
 1608OM     OM1 1608   2.555   0.120   6.811
 1609OM     OM1 1609   8.945   8.916   0.392
 1610OM     OM1 1610   8.720   8.946   0.534
 1611OM     OM1 1611   8.959   8.996   0.642
 1612OM     OM1 1612   9.012   8.975   0.146
 1613OM     OM1 1613   9.180   0.434   8.519
 1614OM     OM1 1614   8.992   0.268   8.427
 1615OM     OM1 1615   8.978   0.386   8.666
 1616OM     OM1 1616   0.038   8.891   6.795
 1617OM     OM1 1617   9.586   8.692   6.961
 1618OM     OM1 1618   0.226   8.761   6.908
 1619OM     OM1 1619   8.698   9.572   1.687
 1620OM     OM1 1620   8.758   0.216   1.716
 1621OM     OM1 1621   8.956   0.215   1.546
 1622OM     OM1 1622   8.981   0.119   1.797
 1623OM     OM1 1623   3.725   1.226   5.436
 1624OM     OM1 1624   3.625   0.978   5.444
 1625OM     OM1 1625   3.632   1.119   5.229
 1626OM     OM1 1626   4.662   9.365   5.473
 1627OM     OM1 1627   4.686   9.139   5.585
 1628OM     OM1 1628   4.503   9.165   5.400
 1629OM     OM1 1629   4.760   9.172   5.337
 1630OM     OM1 1630   1.456   0.234   1.970
 1631OM     OM1 1631   1.515   0.461   1.882
 1632OM     OM1 1632   1.347   0.456   2.076
 1633OM     OM1 1633   1.497   0.420   1.635
 1634OM     OM1 1634   2.817   1.292   3.244
 1635OM     OM1 1635   2.929   1.190   3.037
 1636OM     OM1 1636   2.682   1.137   3.074
 1637OM     OM1 1637   7.238   0.785   7.565
 1638OM     OM1 1638   7.319   0.737   7.810
 1639OM     OM1 1639   7.480   0.705   7.617
 1640OM     OM1 1640   7.376   0.964   7.661
 1641OM     OM1 1641   3.331   8.511   4.216
 1642OM     OM1 1642   3.530   8.390   4.314
 1643OM     OM1 1643   3.505   8.402   4.052
 1644OM     OM1 1644   7.247   8.314   3.972
 1645OM     OM1 1645   7.360   8.399   4.185
 1646OM     OM1 1646   7.501   8.434   3.968
 1647OM     OM1 1647   4.435   9.087   7.566
 1648OM     OM1 1648   4.654   8.906   7.191
 1649OM     OM1 1649   4.543   8.899   7.436
 1650OM     OM1 1650   6.965   1.141   2.182
 1651OM     OM1 1651   6.771   1.277   2.272
 1652OM     OM1 1652   6.846   8.318   7.036
 1653OM     OM1 1653   7.010   8.467   7.173
 1654OM     OM1 1654   6.791   8.386   7.276
 1655OM     OM1 1655   6.670   8.357   6.842
 1656OM     OM1 1656   1.011   0.589   3.894
 1657OM     OM1 1657   0.990   0.842   3.916
 1658OM     OM1 1658   1.219   0.752   3.854
 1659OM     OM1 1659   1.023   0.743   3.678
 1660OM     OM1 1660   4.493   0.756   5.654
 1661OM     OM1 1661   4.298   0.812   5.821
 1662OM     OM1 1662   4.244   0.731   5.579
 1663OM     OM1 1663   4.342   0.972   5.621
 1664OM     OM1 1664   0.561   9.233   5.573
 1665OM     OM1 1665   0.397   9.354   5.414
 1666OM     OM1 1666   0.429   9.089   5.405
 1667OM     OM1 1667   0.302   9.192   5.606
 1668OM     OM1 1668   5.170   0.054   3.768
 1669OM     OM1 1669   5.195   9.548   4.001
 1670OM     OM1 1670   5.146   9.394   3.805
 1671OM     OM1 1671   4.956   9.557   3.880
 1672OM     OM1 1672   8.754   9.325   1.582
 1673OM     OM1 1673   8.536   9.381   1.709
 1674OM     OM1 1674   3.136   0.210   2.514
 1675OM     OM1 1675   3.060   0.041   2.320
 1676OM     OM1 1676   3.276   0.203   2.288
 1677OM     OM1 1677   3.033   0.293   2.296
 1678OM     OM1 1678   7.343   0.227   1.443
 1679OM     OM1 1679   7.420   0.014   1.313
 1680OM     OM1 1680   7.387   9.602   1.565
 1681OM     OM1 1681   7.630   8.432   7.104
 1682OM     OM1 1682   7.461   8.354   7.283
 1683OM     OM1 1683   7.465   8.249   7.057
 1684OM     OM1 1684   4.476   8.354   7.165
 1685OM     OM1 1685   4.060   8.244   6.935
 1686OM     OM1 1686   9.074   1.161   0.236
 1687OM     OM1 1687   9.315   1.095   0.253
 1688OM     OM1 1688   9.282   1.169   0.002
 1689OM     OM1 1689   1.355   8.357   0.576
 1690OM     OM1 1690   1.523   8.504   0.699
 1691OM     OM1 1691   1.317   8.445   0.823
 1692OM     OM1 1692   9.071   0.709   4.826
 1693OM     OM1 1693   9.030   0.509   4.658
 1694OM     OM1 1694   9.112   0.745   4.577
 1695OM     OM1 1695   8.861   0.710   4.656
 1696OM     OM1 1696   1.219   8.552   9.511
 1697OM     OM1 1697   1.463   8.480   9.477
 1698OM     OM1 1698   1.507   8.571   9.235
 1699OM     OM1 1699   1.526   8.316   9.290
 1700OM     OM1 1700   8.187   8.595   5.465
 1701OM     OM1 1701   8.176   8.336   5.426
 1702OM     OM1 1702   8.145   8.498   5.230
 1703OM     OM1 1703   7.955   8.466   5.415
 1704OM     OM1 1704   1.743   8.900   4.104
 1705OM     OM1 1705   1.955   8.745   4.046
 1706OM     OM1 1706   1.830   8.718   4.263
 1707OM     OM1 1707   1.718   8.637   4.049
 1708OM     OM1 1708   6.829   9.312   0.384
 1709OM     OM1 1709   6.674   9.515   0.378
 1710OM     OM1 1710   6.577   9.292   0.438
 1711OM     OM1 1711   8.022   1.199   4.782
 1712OM     OM1 1712   8.112   1.240   5.034
 1713OM     OM1 1713   7.965   1.005   4.610
 1714OM     OM1 1714   8.207   1.057   4.636
 1715OM     OM1 1715   6.768   8.424   0.777
 1716OM     OM1 1716   6.593   8.578   0.912
 1717OM     OM1 1717   6.553   8.329   0.888
 1718OM     OM1 1718   9.523   8.370   7.661
 1719OM     OM1 1719   0.369   8.977   8.379
 1720OM     OM1 1720   0.712   8.732   8.269
 1721OM     OM1 1721   0.449   8.688   8.269
 1722OM     OM1 1722   0.537   8.910   8.196
 1723OM     OM1 1723   2.719   0.325   8.516
 1724OM     OM1 1724   2.560   0.136   8.615
 1725OM     OM1 1725   2.750   0.244   8.762
 1726OM     OM1 1726   2.524   0.367   8.698
 1727OM     OM1 1727   4.339   1.266   6.280
 1728OM     OM1 1728   8.778   9.210   6.824
 1729OM     OM1 1729   9.022   9.313   6.775
 1730OM     OM1 1730   8.834   9.467   6.854
 1731OM     OM1 1731   7.622   8.985   2.191
 1732OM     OM1 1732   7.811   9.133   2.278
 1733OM     OM1 1733   7.551   9.222   2.273
 1734OM     OM1 1734   7.628   9.037   2.444
 1735OM     OM1 1735   1.936   1.117   8.534
 1736OM     OM1 1736   2.101   1.234   8.691
 1737OM     OM1 1737   1.848   1.270   8.731
 1738OM     OM1 1738   3.865   9.150   5.965
 1739OM     OM1 1739   3.752   9.215   5.751
 1740OM     OM1 1740   4.054   9.315   6.017
 1741OM     OM1 1741   3.746   9.436   5.894
 1742OM     OM1 1742   4.889   1.322   7.878
 1743OM     OM1 1743   6.911   9.419   4.004
 1744OM     OM1 1744   7.060   9.339   4.206
 1745OM     OM1 1745   6.806   9.296   4.204
 1746OM     OM1 1746   6.948   9.158   4.044
 1747OM     OM1 1747   8.230   0.193   0.717
 1748OM     OM1 1748   8.221   0.246   0.978
 1749OM     OM1 1749   8.545   9.499   0.993
 1750OM     OM1 1750   9.030   1.152   2.331
 1751OM     OM1 1751   0.333   8.321   9.555
 1752OM     OM1 1752   0.099   8.365   9.424
 1753OM     OM1 1753   0.316   8.397   9.303
 1754OM     OM1 1754   5.410   0.946   1.757
 1755OM     OM1 1755   5.376   1.166   1.896
 1756OM     OM1 1756   5.465   1.170   1.641
 1757OM     OM1 1757   5.610   1.092   1.843
 1758OM     OM1 1758   0.590   8.382   8.895
 1759OM     OM1 1759   0.394   8.423   9.063
 1760OM     OM1 1760   0.640   8.383   9.154
 1761OM     OM1 1761   1.877   8.745   2.966
 1762OM     OM1 1762   1.870   8.950   2.815
 1763OM     OM1 1763   1.682   8.770   2.780
 1764OM     OM1 1764   4.686   9.546   3.862
 1765OM     OM1 1765   4.593   0.177   3.915
 1766OM     OM1 1766   4.694   0.028   4.100
 1767OM     OM1 1767   4.449   9.579   3.975
 1768OM     OM1 1768   9.259   0.156   5.935
 1769OM     OM1 1769   9.398   9.558   6.023
 1770OM     OM1 1770   9.296   0.119   6.196
 1771OM     OM1 1771   9.493   0.196   6.052
 1772OM     OM1 1772   5.078   8.296   1.986
 1773OM     OM1 1773   5.129   8.520   2.116
 1774OM     OM1 1774   4.957   8.336   2.204
 1775OM     OM1 1775   4.906   8.492   1.987
 1776OM     OM1 1776   1.878   1.101   2.237
 1777OM     OM1 1777   2.058   1.156   2.071
 1778OM     OM1 1778   0.545   0.201   6.444
 1779OM     OM1 1779   0.481   0.448   6.365
 1780OM     OM1 1780   0.614   0.292   6.215
 1781OM     OM1 1781   7.141   8.519   6.093
 1782OM     OM1 1782   7.336   8.697   6.088
 1783OM     OM1 1783   7.249   8.597   6.310
 1784OM     OM1 1784   7.092   8.762   6.160
 1785OM     OM1 1785   0.457   0.414   0.785
 1786OM     OM1 1786   0.472   0.232   0.965
 1787OM     OM1 1787   0.234   0.297   0.862
 1788OM     OM1 1788   5.057   8.767   0.827
 1789OM     OM1 1789   4.960   8.995   0.792
 1790OM     OM1 1790   5.180   8.983   0.929
 1791OM     OM1 1791   4.954   8.895   1.037
 1792OM     OM1 1792   6.513   0.745   2.088
 1793OM     OM1 1793   6.610   0.971   1.992
 1794OM     OM1 1794   6.657   0.908   2.246
 1795OM     OM1 1795   5.591   0.528   1.094
 1796OM     OM1 1796   5.579   0.266   1.122
 1797OM     OM1 1797   5.514   0.417   1.320
 1798OM     OM1 1798   5.764   0.398   1.247
 1799OM     OM1 1799   2.979   8.950   1.251
 1800OM     OM1 1800   2.948   9.045   1.503
 1801OM     OM1 1801   3.077   8.817   1.452
 1802OM     OM1 1802   3.175   9.043   1.387
 1803OM     OM1 1803   5.803   0.461   9.418
 1804OM     OM1 1804   5.918   0.523   0.038
 1805OM     OM1 1805   5.774   0.706   9.516
 1806OM     OM1 1806   6.005   0.632   9.428
 1807OM     OM1 1807   4.698   1.206   3.224
 1808OM     OM1 1808   4.480   1.154   3.351
 1809OM     OM1 1809   7.275   0.164   0.921
 1810OM     OM1 1810   7.537   0.197   0.809
 1811OM     OM1 1811   7.313   0.250   0.683
 1812OM     OM1 1812   5.298   8.947   1.848
 1813OM     OM1 1813   5.454   9.163   1.855
 1814OM     OM1 1814   5.194   9.181   1.906
 1815OM     OM1 1815   9.569   8.860   6.548
 1816OM     OM1 1816   0.100   8.649   6.519
 1817OM     OM1 1817   0.007   8.781   6.309
 1818OM     OM1 1818   9.437   8.657   6.459
 1819OM     OM1 1819   4.124   0.346   1.198
 1820OM     OM1 1820   4.030   0.269   1.425
 1821OM     OM1 1821   4.216   0.123   1.309
 1822OM     OM1 1822   3.862   9.158   2.337
 1823OM     OM1 1823   3.901   9.341   2.144
 1824OM     OM1 1824   3.665   9.305   2.264
 1825OM     OM1 1825   6.028   8.983   1.016
 1826OM     OM1 1826   5.973   8.745   1.091
 1827OM     OM1 1827   6.197   8.838   1.173
 1828OM     OM1 1828   6.160   8.779   0.917
 1829OM     OM1 1829   8.776   1.297   2.667
 1830OM     OM1 1830   8.846   1.319   2.925
 1831OM     OM1 1831   8.622   1.209   2.861
 1832OM     OM1 1832   5.779   9.314   8.243
 1833OM     OM1 1833   5.794   9.515   8.414
 1834OM     OM1 1834   5.999   9.361   8.366
 1835OM     OM1 1835   5.787   9.257   8.490
 1836OM     OM1 1836   9.401   8.980   9.599
 1837OM     OM1 1837   9.336   9.104   9.378
 1838OM     OM1 1838   9.186   9.112   9.600
 1839OM     OM1 1839   7.465   0.569   3.586
 1840OM     OM1 1840   7.517   0.317   3.637
 1841OM     OM1 1841   7.555   0.496   3.815
 1842OM     OM1 1842   7.715   0.491   3.593
 1843OM     OM1 1843   6.653   0.625   4.171
 1844OM     OM1 1844   6.809   0.636   4.385
 1845OM     OM1 1845   6.595   0.499   4.398
 1846OM     OM1 1846   6.577   0.763   4.371
 1847OM     OM1 1847   8.196   0.334   6.066
 1848OM     OM1 1848   8.169   0.401   6.311
 1849OM     OM1 1849   8.102   0.156   6.241
 1850OM     OM1 1850   8.360   0.240   6.235
 1851OM     OM1 1851   5.361   9.469   7.138
 1852OM     OM1 1852   5.265   0.086   7.224
 1853OM     OM1 1853   5.315   0.067   6.974
 1854OM     OM1 1854   5.108   9.553   7.072
 1855OM     OM1 1855   5.495   8.716   5.218
 1856OM     OM1 1856   5.296   8.759   5.060
 1857OM     OM1 1857   5.255   8.754   5.317
 1858OM     OM1 1858   6.345   1.387   2.300
 1859OM     OM1 1859   0.553   0.795   7.503
 1860OM     OM1 1860   0.682   0.978   7.637
 1861OM     OM1 1861   0.729   0.955   7.387
 1862OM     OM1 1862   0.804   0.754   7.532
 1863OM     OM1 1863   5.829   8.368   0.722
 1864OM     OM1 1864   5.780   8.264   0.941
 1865OM     OM1 1865   6.032   8.293   0.865
 1866OM     OM1 1866   3.021   1.122   7.720
 1867OM     OM1 1867   3.227   1.212   7.601
 1868OM     OM1 1868   6.896   9.283   1.998
 1869OM     OM1 1869   6.681   9.378   2.117
 1870OM     OM1 1870   6.882   9.285   2.256
 1871OM     OM1 1871   6.897   9.512   2.128
 1872OM     OM1 1872   3.876   0.454   7.923
 1873OM     OM1 1873   3.915   0.514   7.671
 1874OM     OM1 1874   3.917   0.706   7.856
 1875OM     OM1 1875   3.699   0.590   7.797
 1876OM     OM1 1876   2.596   1.125   5.993
 1877OM     OM1 1877   2.702   1.308   5.847
 1878OM     OM1 1878   2.851   1.124   5.978
 1879OM     OM1 1879   8.137   0.749   3.545
 1880OM     OM1 1880   8.110   0.667   3.787
 1881OM     OM1 1881   8.187   0.918   3.729
 1882OM     OM1 1882   8.351   0.721   3.710
 1883OM     OM1 1883   5.398   9.439   5.340
 1884OM     OM1 1884   5.253   9.221   5.438
 1885OM     OM1 1885   5.509   9.228   5.429
 1886OM     OM1 1886   1.924   9.382   4.265
 1887OM     OM1 1887   1.898   9.314   4.510
 1888OM     OM1 1888   2.091   9.485   4.442
 1889OM     OM1 1889   5.484   1.267   7.551
 1890OM     OM1 1890   5.268   1.114   7.578
 1891OM     OM1 1891   5.425   1.149   7.777
 1892OM     OM1 1892   1.039   0.258   0.342
 1893OM     OM1 1893   1.271   0.353   0.300
 1894OM     OM1 1894   0.912   0.316   0.573
 1895OM     OM1 1895   1.065   0.509   0.373
 1896OM     OM1 1896   8.156   8.258   8.201
 1897OM     OM1 1897   8.286   8.479   8.200
 1898OM     OM1 1898   8.329   9.411   4.725
 1899OM     OM1 1899   8.256   9.342   4.966
 1900OM     OM1 1900   8.297   9.155   4.787
 1901OM     OM1 1901   8.498   9.278   4.875
 1902OM     OM1 1902   7.910   0.547   1.630
 1903OM     OM1 1903   7.522   0.649   1.412
 1904OM     OM1 1904   7.840   0.745   1.325
 1905OM     OM1 1905   7.675   0.648   1.625
 1906OM     OM1 1906   6.250   0.109   8.484
 1907OM     OM1 1907   6.051   0.269   8.488
 1908OM     OM1 1908   6.273   0.327   8.620
 1909OM     OM1 1909   6.275   0.353   8.370
 1910OM     OM1 1910   8.150   0.428   0.299
 1911OM     OM1 1911   8.351   0.276   0.238
 1912OM     OM1 1912   8.438   0.050   0.296
 1913OM     OM1 1913   8.104   0.188   0.216
 1914OM     OM1 1914   5.836   0.072   7.040
 1915OM     OM1 1915   5.898   0.232   7.232
 1916OM     OM1 1916   5.725   0.296   7.023
 1917OM     OM1 1917   5.664   0.145   7.233
 1918OM     OM1 1918   7.687   0.971   2.744
 1919OM     OM1 1919   7.495   0.912   2.581
 1920OM     OM1 1920   1.153   1.178   4.035
 1921OM     OM1 1921   0.929   1.307   4.037
 1922OM     OM1 1922   1.003   1.167   3.828
 1923OM     OM1 1923   0.920   1.049   4.048
 1924OM     OM1 1924   0.947   8.746   8.010
 1925OM     OM1 1925   1.013   8.548   7.865
 1926OM     OM1 1926   1.251   8.484   7.967
 1927OM     OM1 1927   1.498   8.526   7.994
 1928OM     OM1 1928   4.437   0.927   9.162
 1929OM     OM1 1929   4.260   1.185   8.915
 1930OM     OM1 1930   4.247   0.600   8.892
 1931OM     OM1 1931   4.229   1.069   9.149
 1932OM     OM1 1932   7.234   0.008   7.133
 1933OM     OM1 1933   7.462   0.118   7.226
 1934OM     OM1 1934   7.313   9.587   7.387
 1935OM     OM1 1935   7.225   0.206   7.305
 1936OM     OM1 1936   1.450   9.334   7.574
 1937OM     OM1 1937   1.450   9.083   7.615
 1938OM     OM1 1938   1.540   9.197   7.387
 1939OM     OM1 1939   3.113   8.191   8.233
 1940OM     OM1 1940   2.642   8.940   9.500
 1941OM     OM1 1941   2.407   9.011   9.563
 1942OM     OM1 1942   2.548   9.185   9.431
 1943OM     OM1 1943   2.319   1.114   2.088
 1944OM     OM1 1944   2.481   1.322   2.067
 1945OM     OM1 1945   2.494   1.140   1.891
 1946OM     OM1 1946   4.231   8.762   8.861
 1947OM     OM1 1947   4.564   8.927   8.763
 1948OM     OM1 1948   4.226   8.592   8.657
 1949OM     OM1 1949   0.862   8.437   3.676
 1950OM     OM1 1950   1.005   8.604   3.797
 1951OM     OM1 1951   0.846   8.467   3.946
 1952OM     OM1 1952   4.346   0.234   1.811
 1953OM     OM1 1953   4.295   9.593   1.733
 1954OM     OM1 1954   4.113   0.137   1.861
 1955OM     OM1 1955   4.165   0.179   1.622
 1956OM     OM1 1956   5.982   8.655   8.856
 1957OM     OM1 1957   5.801   8.662   8.674
 1958OM     OM1 1958   5.759   8.499   8.876
 1959OM     OM1 1959   5.745   8.749   8.918
 1960OM     OM1 1960   7.940   8.416   0.266
 1961OM     OM1 1961   7.753   8.574   0.354
 1962OM     OM1 1962   7.743   8.452   0.108
 1963OM     OM1 1963   7.888   8.651   0.147
 1964OM     OM1 1964   1.343   9.153   1.328
 1965OM     OM1 1965   1.501   9.337   1.249
 1966OM     OM1 1966   1.459   9.319   1.499
 1967OM     OM1 1967   1.601   9.133   1.395
 1968OM     OM1 1968   0.537   1.067   3.924
 1969OM     OM1 1969   0.331   1.246   3.936
 1970OM     OM1 1970   0.508   1.246   3.744
 1971OM     OM1 1971   0.429   1.161   7.147
 1972OM     OM1 1972   0.180   1.172   7.067
 1973OM     OM1 1973   0.253   0.989   7.243
 1974OM     OM1 1974   0.191   0.770   7.130
 1975OM     OM1 1975   6.763   9.109   4.379
 1976OM     OM1 1976   6.690   9.155   4.749
 1977OM     OM1 1977   6.883   9.053   4.598
 1978OM     OM1 1978   6.922   9.272   4.732
 1979OM     OM1 1979   8.706   1.023   1.917
 1980OM     OM1 1980   8.943   1.143   1.890
 1981OM     OM1 1981   8.931   0.884   1.882
 1982OM     OM1 1982   8.884   0.999   2.106
 1983OM     OM1 1983   6.823   1.040   7.359
 1984OM     OM1 1984   6.790   1.248   7.203
 1985OM     OM1 1985   6.583   1.111   7.312
 1986OM     OM1 1986   6.737   1.282   7.450
 1987OM     OM1 1987   5.586   8.445   0.994
 1988OM     OM1 1988   5.541   8.639   0.815
 1989OM     OM1 1989   5.723   8.692   1.148
 1990OM     OM1 1990   5.476   8.669   1.060
 1991OM     OM1 1991   8.810   1.119   8.465
 1992OM     OM1 1992   8.615   1.096   8.637
 1993OM     OM1 1993   8.851   1.206   8.711
 1994OM     OM1 1994   8.843   0.954   8.662
 1995OM     OM1 1995   6.440   9.235   6.982
 1996OM     OM1 1996   6.579   9.394   7.114
 1997OM     OM1 1997   6.693   9.270   6.905
 1998OM     OM1 1998   6.650   9.140   7.121
 1999OM     OM1 1999   6.444   9.081   3.060
 2000OM     OM1 2000   6.287   8.936   2.909
 2001OM     OM1 2001   6.523   9.009   2.832
 2002OM     OM1 2002   6.506   8.829   3.024
 2003OM     OM1 2003   3.320   9.243   0.063
 2004OM     OM1 2004   3.532   9.399   0.098
 2005OM     OM1 2005   3.527   9.140   0.154
 2006OM     OM1 2006   4.158   0.512   7.709
 2007OM     OM1 2007   4.047   0.286   7.622
 2008OM     OM1 2008   4.094   0.488   7.463
 2009OM     OM1 2009   0.255   8.308   7.989
 2010OM     OM1 2010   2.017   0.878   8.627
 2011OM     OM1 2011   1.938   0.633   8.706
 2012OM     OM1 2012   1.910   0.840   8.856
 2013OM     OM1 2013   2.142   0.747   8.823
 2014OM     OM1 2014   1.235   8.403   3.689
 2015OM     OM1 2015   1.472   8.492   3.749
 2016OM     OM1 2016   1.350   8.595   3.541
 2017OM     OM1 2017   1.255   8.651   3.765
 2018OM     OM1 2018   1.960   1.184   1.738
 2019OM     OM1 2019   2.188   1.297   1.680
 2020OM     OM1 2020   7.921   8.506   7.429
 2021OM     OM1 2021   7.952   8.298   7.583
 2022OM     OM1 2022   8.144   8.371   7.410
 2023OM     OM1 2023   6.258   8.632   0.279
 2024OM     OM1 2024   5.999   8.659   0.269
 2025OM     OM1 2025   6.122   8.504   0.093
 2026OM     OM1 2026   6.107   8.422   0.332
 2027OM     OM1 2027   8.542   1.353   1.423
 2028OM     OM1 2028   8.416   1.129   1.388
 2029OM     OM1 2029   5.639   8.541   7.517
 2030OM     OM1 2030   5.877   8.606   7.433
 2031OM     OM1 2031   5.829   8.366   7.507
 2032OM     OM1 2032   5.825   8.569   7.687
 2033OM     OM1 2033   1.636   8.761   4.497
 2034OM     OM1 2034   1.841   8.591   4.483
 2035OM     OM1 2035   1.685   8.581   4.684
 2036OM     OM1 2036   1.597   8.522   4.432
 2037OM     OM1 2037   1.268   0.166   0.704
 2038OM     OM1 2038   1.391   0.377   0.778
 2039OM     OM1 2039   1.400   0.306   0.521
 2040OM     OM1 2040   1.530   0.167   0.697
 2041OM     OM1 2041   4.717   8.302   4.047
 2042OM     OM1 2042   4.835   8.246   3.820
 2043OM     OM1 2043   9.310   8.316   2.676
 2044OM     OM1 2044   9.499   8.487   2.725
 2045OM     OM1 2045   9.567   8.267   2.610
 2046OM     OM1 2046   1.652   8.260   6.351
 2047OM     OM1 2047   1.466   8.290   6.185
 2048OM     OM1 2048   1.437   8.404   6.412
 2049OM     OM1 2049   6.681   8.762   5.175
 2050OM     OM1 2050   6.575   8.996   5.132
 2051OM     OM1 2051   6.832   8.965   5.092
 2052OM     OM1 2052   6.744   8.971   5.331
 2053OM     OM1 2053   9.086   9.546   7.388
 2054OM     OM1 2054   8.976   0.097   7.560
 2055OM     OM1 2055   0.015   0.590   0.184
 2056OM     OM1 2056   0.167   0.390   0.161
 2057OM     OM1 2057   0.270   0.597   0.271
 2058OM     OM1 2058   0.229   0.617   0.027
 2059OM     OM1 2059   0.142   9.271   9.594
 2060OM     OM1 2060   0.164   9.087   9.393
 2061OM     OM1 2061   0.099   9.342   9.347
 2062OM     OM1 2062   0.526   0.866   2.326
 2063OM     OM1 2063   0.308   0.992   2.276
 2064OM     OM1 2064   0.411   0.999   2.526
 2065OM     OM1 2065   0.297   0.788   2.440
 2066OM     OM1 2066   6.613   1.431   7.624
 2067OM     OM1 2067   5.632   9.096   1.681
 2068OM     OM1 2068   5.713   9.189   1.910
 2069OM     OM1 2069   5.599   9.352   1.740
 2070OM     OM1 2070   9.326   9.514   7.309
 2071OM     OM1 2071   9.216   9.308   7.408
 2072OM     OM1 2072   1.060   0.338   3.710
 2073OM     OM1 2073   1.245   0.404   3.545
 2074OM     OM1 2074   1.058   9.572   3.347
 2075OM     OM1 2075   4.197   9.091   2.980
 2076OM     OM1 2076   4.379   9.226   2.857
 2077OM     OM1 2077   4.303   8.986   2.775
 2078OM     OM1 2078   4.460   9.007   2.973
 2079OM     OM1 2079   1.826   0.683   8.225
 2080OM     OM1 2080   1.895   0.879   8.401
 2081OM     OM1 2081   2.049   0.672   8.371
 2082OM     OM1 2082   8.510   1.032   2.095
 2083OM     OM1 2083   8.471   0.923   1.859
 2084OM     OM1 2084   4.663   8.743   5.627
 2085OM     OM1 2085   4.826   8.543   5.585
 2086OM     OM1 2086   4.776   8.704   5.397
 2087OM     OM1 2087   4.593   8.540   5.461
 2088OM     OM1 2088   2.524   8.770   1.672
 2089OM     OM1 2089   2.493   9.013   1.608
 2090OM     OM1 2090   2.323   8.838   1.523
 2091OM     OM1 2091   2.333   8.911   1.783
 2092OM     OM1 2092   3.358   8.447   7.342
 2093OM     OM1 2093   3.424   8.635   7.170
 2094OM     OM1 2094   3.187   8.535   7.177
 2095OM     OM1 2095   3.375   8.396   7.070
 2096OM     OM1 2096   9.021   8.435   8.796
 2097OM     OM1 2097   9.225   8.373   8.644
 2098OM     OM1 2098   7.681   8.450   4.712
 2099OM     OM1 2099   7.868   8.292   4.601
 2100OM     OM1 2100   7.511   8.518   4.894
 2101OM     OM1 2101   4.969   9.490   6.865
 2102OM     OM1 2102   4.876   0.072   7.017
 2103OM     OM1 2103   4.885   9.439   7.113
 2104OM     OM1 2104   1.028   0.603   4.263
 2105OM     OM1 2105   0.882   0.805   4.144
 2106OM     OM1 2106   0.852   0.752   4.396
 2107OM     OM1 2107   6.114   1.220   0.436
 2108OM     OM1 2108   5.940   1.139   0.602
 2109OM     OM1 2109   3.367   8.483   3.606
 2110OM     OM1 2110   3.154   8.493   3.748
 2111OM     OM1 2111   3.235   8.709   3.615
 2112OM     OM1 2112   3.131   8.511   3.490
 2113OM     OM1 2113   4.273   8.654   6.206
 2114OM     OM1 2114   4.351   8.624   5.950
 2115OM     OM1 2115   4.244   8.845   6.032
 2116OM     OM1 2116   4.484   8.768   6.122
 2117OM     OM1 2117   6.170   9.578   7.962
 2118OM     OM1 2118   6.048   9.560   7.749
 2119OM     OM1 2119   5.827   9.562   7.913
 2120OM     OM1 2120   5.864   0.126   7.722
 2121OM     OM1 2121   8.060   9.457   1.412
 2122OM     OM1 2122   7.885   9.352   1.232
 2123OM     OM1 2123   8.132   9.331   1.189
 2124OM     OM1 2124   8.045   9.203   1.391
 2125OM     OM1 2125   7.880   0.762   8.470
 2126OM     OM1 2126   7.968   0.566   8.318
 2127OM     OM1 2127   6.953   0.151   7.933
 2128OM     OM1 2128   6.745   0.002   7.922
 2129OM     OM1 2129   6.728   0.251   7.838
 2130OM     OM1 2130   6.870   0.055   7.705
 2131OM     OM1 2131   2.809   8.749   9.509
 2132OM     OM1 2132   2.554   8.698   9.476
 2133OM     OM1 2133   5.048   8.514   6.205
 2134OM     OM1 2134   5.054   8.755   6.304
 2135OM     OM1 2135   5.277   8.619   6.295
 2136OM     OM1 2136   5.104   8.549   6.465
 2137OM     OM1 2137   1.818   8.582   2.364
 2138OM     OM1 2138   1.984   8.617   2.184
 2139OM     OM1 2139   2.054   8.445   2.364
 2140OM     OM1 2140   3.557   0.728   8.436
 2141OM     OM1 2141   3.798   0.648   8.399
 2142OM     OM1 2142   3.690   0.652   8.643
 2143OM     OM1 2143   3.635   0.467   8.469
 2144OM     OM1 2144   1.195   8.758   9.364
 2145OM     OM1 2145   1.309   8.981   9.453
 2146OM     OM1 2146   1.186   8.972   9.216
 2147OM     OM1 2147   1.053   8.963   9.436
 2148OM     OM1 2148   1.715   1.416   6.481
 2149OM     OM1 2149   3.839   0.972   5.167
 2150OM     OM1 2150   3.682   1.069   4.976
 2151OM     OM1 2151   3.606   0.880   5.140
 2152OM     OM1 2152   8.135   0.119   5.715
 2153OM     OM1 2153   8.137   9.466   5.761
 2154OM     OM1 2154   8.306   9.603   5.889
 2155OM     OM1 2155   8.325   9.570   5.621
 2156OM     OM1 2156   2.802   0.454   5.951
 2157OM     OM1 2157   2.632   0.436   6.153
 2158OM     OM1 2158   2.736   0.669   6.081
 2159OM     OM1 2159   7.697   1.064   8.248
 2160OM     OM1 2160   7.901   1.159   8.383
 2161OM     OM1 2161   4.774   8.449   8.644
 2162OM     OM1 2162   4.825   8.367   8.881
 2163OM     OM1 2163   5.126   8.351   8.522
 2164OM     OM1 2164   4.942   8.250   8.671
 2165OM     OM1 2165   3.345   8.245   8.326
 2166OM     OM1 2166   3.394   8.313   8.589
 2167OM     OM1 2167   9.238   9.057   2.738
 2168OM     OM1 2168   9.189   8.796   2.780
 2169OM     OM1 2169   9.266   8.888   2.551
 2170OM     OM1 2170   9.027   8.946   2.632
 2171OM     OM1 2171   6.464   9.550   5.037
 2172OM     OM1 2172   6.409   9.448   5.261
 2173OM     OM1 2173   6.508   0.089   5.249
 2174OM     OM1 2174   6.259   0.043   5.197
 2175OM     OM1 2175   5.760   1.024   4.472
 2176OM     OM1 2176   5.363   1.248   4.700
 2177OM     OM1 2177   5.831   1.222   4.624
 2178OM     OM1 2178   5.582   1.139   4.625
 2179OM     OM1 2179   8.728   9.560   7.935
 2180OM     OM1 2180   8.640   0.117   8.101
 2181OM     OM1 2181   5.026   9.352   6.635
 2182OM     OM1 2182   5.171   9.330   6.844
 2183OM     OM1 2183   4.919   9.239   6.833
 2184OM     OM1 2184   4.346   0.920   7.472
 2185OM     OM1 2185   4.269   0.683   7.459
 2186OM     OM1 2186   4.473   0.735   7.623
 2187OM     OM1 2187   4.503   0.742   7.363
 2188OM     OM1 2188   7.694   0.126   5.935
 2189OM     OM1 2189   7.479   0.032   6.054
 2190OM     OM1 2190   7.648   9.471   5.940
 2191OM     OM1 2191   7.512   0.014   5.790
 2192OM     OM1 2192   5.594   8.567   3.069
 2193OM     OM1 2193   5.614   8.802   3.186
 2194OM     OM1 2194   5.331   8.581   2.938
 2195OM     OM1 2195   5.498   8.768   2.938
 2196OM     OM1 2196   8.214   0.547   5.609
 2197OM     OM1 2197   8.453   0.447   5.565
 2198OM     OM1 2198   8.387   0.679   5.460
 2199OM     OM1 2199   8.282   0.462   5.372
 2200OM     OM1 2200   8.310   8.308   0.988
 2201OM     OM1 2201   8.524   8.311   1.123
 2202OM     OM1 2202   7.962   9.538   6.206
 2203OM     OM1 2203   7.867   9.295   6.135
 2204OM     OM1 2204   8.003   9.432   5.976
 2205OM     OM1 2205   8.123   9.334   6.192
 2206OM     OM1 2206   5.512   8.829   0.635
 2207OM     OM1 2207   5.636   8.892   0.845
 2208OM     OM1 2208   5.752   8.737   0.679
 2209OM     OM1 2209   1.541   8.597   8.970
 2210OM     OM1 2210   1.576   8.797   9.136
 2211OM     OM1 2211   1.340   8.717   9.067
 2212OM     OM1 2212   8.906   0.661   5.561
 2213OM     OM1 2213   8.939   0.421   5.445
 2214OM     OM1 2214   9.094   0.504   5.645
 2215OM     OM1 2215   9.098   0.610   5.398
 2216OM     OM1 2216   8.094   8.420   2.000
 2217OM     OM1 2217   7.883   8.261   2.035
 2218OM     OM1 2218   3.549   0.584   2.456
 2219OM     OM1 2219   3.489   0.786   2.614
 2220OM     OM1 2220   3.741   0.706   2.570
 2221OM     OM1 2221   3.581   0.582   2.729
 2222OM     OM1 2222   4.510   0.113   0.889
 2223OM     OM1 2223   4.338   9.528   0.951
 2224OM     OM1 2224   4.273   0.109   0.787
 2225OM     OM1 2225   4.442   9.532   0.708
 2226OM     OM1 2226   6.670   0.245   8.730
 2227OM     OM1 2227   6.842   0.194   8.525
 2228OM     OM1 2228   6.921   0.336   8.728
 2229OM     OM1 2229   6.860   0.083   8.764
 2230OM     OM1 2230   5.899   8.802   0.464
 2231OM     OM1 2231   6.018   8.754   0.700
 2232OM     OM1 2232   5.906   8.567   0.567
 2233OM     OM1 2233   8.764   8.356   4.493
 2234OM     OM1 2234   9.016   8.300   4.446
 2235OM     OM1 2235   0.268   0.119   0.114
 2236OM     OM1 2236   0.289   0.196   9.475
 2237OM     OM1 2237   0.452   0.322   0.023
 2238OM     OM1 2238   0.489   0.063   0.001
 2239OM     OM1 2239   6.538   8.432   7.219
 2240OM     OM1 2240   6.619   8.324   7.450
 2241OM     OM1 2241   6.651   8.572   7.406
 2242OM     OM1 2242   7.290   0.703   4.319
 2243OM     OM1 2243   7.495   0.851   4.299
 2244OM     OM1 2244   7.459   0.701   4.525
 2245OM     OM1 2245   7.537   0.598   4.306
 2246OM     OM1 2246   6.335   8.390   5.305
 2247OM     OM1 2247   6.247   8.640   5.280
 2248OM     OM1 2248   6.495   8.582   5.224
 2249OM     OM1 2249   6.395   8.562   5.480
 2250OM     OM1 2250   8.825   0.007   3.414
 2251OM     OM1 2251   8.603   9.525   3.305
 2252OM     OM1 2252   8.631   9.496   3.565
 2253OM     OM1 2253   8.327   1.071   6.576
 2254OM     OM1 2254   8.308   0.815   6.584
 2255OM     OM1 2255   8.398   0.936   6.365
 2256OM     OM1 2256   8.151   0.963   6.420
 2257OM     OM1 2257   7.192   9.090   7.363
 2258OM     OM1 2258   7.419   9.027   7.231
 2259OM     OM1 2259   7.285   8.844   7.361
 2260OM     OM1 2260   7.415   9.037   7.485
 2261OM     OM1 2261   1.896   1.009   5.218
 2262OM     OM1 2262   1.968   0.791   5.338
 2263OM     OM1 2263   1.732   0.795   5.237
 2264OM     OM1 2264   1.938   0.794   5.078
 2265OM     OM1 2265   2.011   0.470   9.124
 2266OM     OM1 2266   2.092   0.723   9.166
 2267OM     OM1 2267   2.258   0.536   9.089
 2268OM     OM1 2268   2.168   0.526   9.328
 2269OM     OM1 2269   1.596   0.145   1.600
 2270OM     OM1 2270   1.551   0.196   1.351
 2271OM     OM1 2271   1.557   0.428   1.235
 2272OM     OM1 2272   1.689   0.207   1.137
 2273OM     OM1 2273   9.505   0.032   7.187
 2274OM     OM1 2274   9.560   9.515   7.417
 2275OM     OM1 2275   9.434   0.131   7.419
 2276OM     OM1 2276   0.763   9.281   3.718
 2277OM     OM1 2277   0.718   9.109   3.908
 2278OM     OM1 2278   0.628   9.060   3.670
 2279OM     OM1 2279   0.889   9.051   3.725
 2280OM     OM1 2280   1.406   8.762   7.185
 2281OM     OM1 2281   1.556   8.874   7.354
 2282OM     OM1 2282   1.462   9.015   7.152
 2283OM     OM1 2283   1.302   8.921   7.358
 2284OM     OM1 2284   1.298   1.009   0.767
 2285OM     OM1 2285   1.315   1.097   0.527
 2286OM     OM1 2286   1.535   0.994   0.615
 2287OM     OM1 2287   1.341   0.839   0.576
 2288OM     OM1 2288   5.848   9.044   6.238
 2289OM     OM1 2289   5.753   8.802   6.299
 2290OM     OM1 2290   5.761   9.004   6.471
 2291OM     OM1 2291   0.766   9.027   2.741
 2292OM     OM1 2292   0.925   8.982   2.928
 2293OM     OM1 2293   0.911   9.226   2.828
 2294OM     OM1 2294   0.717   9.131   2.977
 2295OM     OM1 2295   4.270   8.438   9.136
 2296OM     OM1 2296   5.069   1.197   1.603
 2297OM     OM1 2297   5.022   1.284   1.347
 2298OM     OM1 2298   4.842   1.288   1.532
 2299OM     OM1 2299   2.252   8.328   8.584
 2300OM     OM1 2300   3.808   0.064   6.605
 2301OM     OM1 2301   3.786   0.144   6.858
 2302OM     OM1 2302   4.023   0.122   6.740
 2303OM     OM1 2303   3.859   0.312   6.678
 2304OM     OM1 2304   0.336   8.598   3.989
 2305OM     OM1 2305   7.875   0.844   5.594
 2306OM     OM1 2306   7.958   0.859   5.830
 2307OM     OM1 2307   7.749   0.707   5.776
 2308OM     OM1 2308   7.984   0.626   5.703
 2309OM     OM1 2309   0.202   0.438   7.539
 2310OM     OM1 2310   0.221   0.415   7.271
 2311OM     OM1 2311   0.022   0.307   7.410
 2312OM     OM1 2312   0.043   0.568   7.387
 2313OM     OM1 2313   0.146   1.091   5.167
 2314OM     OM1 2314   0.304   0.933   5.293
 2315OM     OM1 2315   0.141   0.831   5.117
 2316OM     OM1 2316   0.354   0.979   5.046
 2317OM     OM1 2317   7.001   0.050   5.929
 2318OM     OM1 2318   6.805   9.482   5.984
 2319OM     OM1 2319   6.972   9.433   5.795
 2320OM     OM1 2320   6.793   0.018   5.770
 2321OM     OM1 2321   2.673   0.110   0.467
 2322OM     OM1 2322   2.585   0.358   0.488
 2323OM     OM1 2323   2.701   0.290   0.274
 2324OM     OM1 2324   3.588   1.426   8.330
 2325OM     OM1 2325   3.702   1.241   8.463
 2326OM     OM1 2326   2.840   0.865   8.895
 2327OM     OM1 2327   2.672   1.058   8.975
 2328OM     OM1 2328   2.859   1.116   8.809
 2329OM     OM1 2329   2.925   1.047   9.051
 2330OM     OM1 2330   0.219   8.459   7.358
 2331OM     OM1 2331   0.318   8.571   7.154
 2332OM     OM1 2332   0.420   8.343   7.470
 2333OM     OM1 2333   2.557   0.279   7.031
 2334OM     OM1 2334   2.522   0.248   7.282
 2335OM     OM1 2335   2.364   0.409   7.146
 2336OM     OM1 2336   2.611   0.481   7.194
 2337OM     OM1 2337   8.532   0.496   1.961
 2338OM     OM1 2338   8.970   0.373   1.752
 2339OM     OM1 2339   8.603   0.705   1.832
 2340OM     OM1 2340   8.779   0.514   1.831
 2341OM     OM1 2341   8.927   8.997   4.758
 2342OM     OM1 2342   8.828   8.595   4.554
 2343OM     OM1 2343   8.973   8.742   4.726
 2344OM     OM1 2344   1.255   9.354   4.479
 2345OM     OM1 2345   1.126   9.583   4.502
 2346OM     OM1 2346   1.111   9.426   4.699
 2347OM     OM1 2347   1.337   9.525   4.655
 2348OM     OM1 2348   4.940   8.656   6.030
 2349OM     OM1 2349   5.103   8.454   5.959
 2350OM     OM1 2350   4.229   0.816   9.048
 2351OM     OM1 2351   4.009   0.671   9.002
 2352OM     OM1 2352   4.208   0.862   9.298
 2353OM     OM1 2353   4.209   0.579   9.143
 2354OM     OM1 2354   6.927   0.729   3.623
 2355OM     OM1 2355   7.110   0.631   3.769
 2356OM     OM1 2356   6.880   0.498   3.746
 2357OM     OM1 2357   7.054   0.516   3.545
 2358OM     OM1 2358   9.593   9.281   3.278
 2359OM     OM1 2359   0.136   9.185   3.486
 2360OM     OM1 2360   9.521   9.070   3.410
 2361OM     OM1 2361   9.505   9.295   3.530
 2362OM     OM1 2362   0.548   0.937   5.386
 2363OM     OM1 2363   0.774   0.959   5.251
 2364OM     OM1 2364   0.722   0.752   5.418
 2365OM     OM1 2365   0.776   0.994   5.504
 2366OM     OM1 2366   0.240   0.585   5.557
 2367OM     OM1 2367   0.097   0.814   5.560
 2368OM     OM1 2368   0.255   0.750   5.755
 2369OM     OM1 2369   0.352   0.819   5.520
 2370OM     OM1 2370   1.233   9.543   0.834
 2371OM     OM1 2371   1.371   9.462   1.054
 2372OM     OM1 2372   1.113   9.445   1.049
 2373OM     OM1 2373   1.238   0.076   1.044
 2374OM     OM1 2374   4.219   0.415   0.485
 2375OM     OM1 2375   4.358   0.201   0.440
 2376OM     OM1 2376   4.121   0.218   0.324
 2377OM     OM1 2377   4.138   0.200   0.585
 2378OM     OM1 2378   4.382   0.019   5.794
 2379OM     OM1 2379   4.292   9.416   5.945
 2380OM     OM1 2380   4.417   0.005   6.049
 2381OM     OM1 2381   4.547   9.446   5.888
 2382OM     OM1 2382   0.564   1.055   8.232
 2383OM     OM1 2383   0.303   1.051   8.234
 2384OM     OM1 2384   0.437   0.904   8.066
 2385OM     OM1 2385   0.440   0.840   8.316
 2386OM     OM1 2386   1.226   8.923   5.976
 2387OM     OM1 2387   1.061   9.018   6.165
 2388OM     OM1 2388   1.133   8.765   6.157
 2389OM     OM1 2389   0.975   8.863   5.972
 2390OM     OM1 2390   0.802   0.212   0.780
 2391OM     OM1 2391   0.842   0.055   0.976
 2392OM     OM1 2392   0.802   9.564   0.726
 2393OM     OM1 2393   1.026   0.085   0.793
 2394OM     OM1 2394   4.574   0.162   5.875
 2395OM     OM1 2395   4.529   0.145   5.615
 2396OM     OM1 2396   4.375   0.285   5.777
 2397OM     OM1 2397   4.554   0.217   5.358
 2398OM     OM1 2398   1.096   0.503   8.792
 2399OM     OM1 2399   0.932   0.379   8.937
 2400OM     OM1 2400   1.168   0.414   9.035
 2401OM     OM1 2401   1.072   0.389   8.564
 2402OM     OM1 2402   4.055   9.359   7.675
 2403OM     OM1 2403   4.009   0.017   7.649
 2404OM     OM1 2404   3.974   9.499   7.874
 2405OM     OM1 2405   3.812   9.444   7.675
 2406OM     OM1 2406   2.978   0.813   1.274
 2407OM     OM1 2407   3.053   0.784   1.518
 2408OM     OM1 2408   2.811   0.825   1.461
 2409OM     OM1 2409   2.996   1.025   1.417
 2410OM     OM1 2410   4.996   9.065   7.306
 2411OM     OM1 2411   4.967   9.326   7.332
 2412OM     OM1 2412   5.184   9.218   7.224
 2413OM     OM1 2413   6.529   0.108   3.014
 2414OM     OM1 2414   6.766   0.147   3.093
 2415OM     OM1 2415   6.711   0.146   2.825
 2416OM     OM1 2416   6.705   9.531   2.964
 2417OM     OM1 2417   3.093   0.938   6.976
 2418OM     OM1 2418   3.009   1.136   6.816
 2419OM     OM1 2419   3.187   1.180   7.003
 2420OM     OM1 2420   2.941   1.147   7.063
 2421OM     OM1 2421   4.346   1.112   3.997
 2422OM     OM1 2422   4.100   1.042   4.019
 2423OM     OM1 2423   4.268   0.870   3.914
 2424OM     OM1 2424   4.290   0.927   4.169
 2425OM     OM1 2425   0.594   9.003   0.439
 2426OM     OM1 2426   0.851   8.959   0.428
 2427OM     OM1 2427   0.684   8.855   0.257
 2428OM     OM1 2428   0.686   8.762   0.500
 2429OM     OM1 2429   8.244   8.271   3.766
 2430OM     OM1 2430   8.428   8.280   3.583
 2431OM     OM1 2431   8.808   8.240   7.014
 2432OM     OM1 2432   9.140   8.301   7.353
 2433OM     OM1 2433   9.044   8.221   7.131
 2434OM     OM1 2434   2.564   0.051   5.895
 2435OM     OM1 2435   2.501   0.216   6.101
 2436OM     OM1 2436   2.599   9.588   6.145
 2437OM     OM1 2437   2.364   9.597   6.050
 2438OM     OM1 2438   4.093   9.496   3.115
 2439OM     OM1 2439   4.118   0.137   3.025
 2440OM     OM1 2440   3.891   0.028   2.990
 2441OM     OM1 2441   4.117   9.557   2.864
 2442OM     OM1 2442   2.329   1.116   2.731
 2443OM     OM1 2443   2.178   1.212   2.925
 2444OM     OM1 2444   2.158   0.957   2.827
 2445OM     OM1 2445   2.067   1.161   2.699
 2446OM     OM1 2446   2.586   0.888   5.462
 2447OM     OM1 2447   2.624   0.723   5.667
 2448OM     OM1 2448   2.422   0.690   5.511
 2449OM     OM1 2449   2.429   0.894   5.673
 2450OM     OM1 2450   1.720   1.119   3.170
 2451OM     OM1 2451   1.506   1.225   3.280
 2452OM     OM1 2452   1.726   1.187   3.429
 2453OM     OM1 2453   8.218   1.064   0.197
 2454OM     OM1 2454   8.312   0.916   0.401
 2455OM     OM1 2455   8.454   1.112   0.309
 2456OM     OM1 2456   0.630   8.289   0.892
 2457OM     OM1 2457   0.672   8.277   0.636
 2458OM     OM1 2458   4.035   8.915   4.514
 2459OM     OM1 2459   4.170   9.000   4.728
 2460OM     OM1 2460   4.239   8.783   4.598
 2461OM     OM1 2461   4.274   9.016   4.487
 2462OM     OM1 2462   3.850   1.300   3.655
 2463OM     OM1 2463   3.662   1.307   3.479
 2464OM     OM1 2464   0.175   0.726   6.868
 2465OM     OM1 2465   0.158   0.913   6.683
 2466OM     OM1 2466   0.012   0.708   6.661
 2467OM     OM1 2467   9.576   0.880   6.865
 2468OM     OM1 2468   6.723   8.704   5.784
 2469OM     OM1 2469   6.731   8.466   5.858
 2470OM     OM1 2470   6.777   8.538   5.600
 2471OM     OM1 2471   6.540   8.518   5.693
 2472OM     OM1 2472   4.437   8.766   2.349
 2473OM     OM1 2473   4.253   8.611   2.458
 2474OM     OM1 2474   4.393   8.793   2.600
 2475OM     OM1 2475   4.494   8.568   2.513
 2476OM     OM1 2476   9.458   0.355   0.529
 2477OM     OM1 2477   9.224   0.444   0.481
 2478OM     OM1 2478   9.252   0.205   0.594
 2479OM     OM1 2479   9.339   0.653   0.574
 2480OM     OM1 2480   7.333   9.173   1.062
 2481OM     OM1 2481   7.279   9.256   1.317
 2482OM     OM1 2482   7.413   9.399   1.168
 2483OM     OM1 2483   5.175   1.149   2.770
 2484OM     OM1 2484   5.061   1.155   3.000
 2485OM     OM1 2485   4.922   1.085   2.789
 2486OM     OM1 2486   0.062   9.338   8.752
 2487OM     OM1 2487   0.172   9.222   8.958
 2488OM     OM1 2488   0.014   9.080   8.818
 2489OM     OM1 2489   9.506   9.267   8.948
 2490OM     OM1 2490   3.297   0.853   3.396
 2491OM     OM1 2491   3.469   0.635   2.961
 2492OM     OM1 2492   3.401   0.708   3.199
 2493OM     OM1 2493   0.910   8.408   5.799
 2494OM     OM1 2494   1.037   8.188   5.831
 2495OM     OM1 2495   1.014   8.352   6.036
 2496OM     OM1 2496   6.341   8.611   2.765
 2497OM     OM1 2497   6.483   8.530   2.966
 2498OM     OM1 2498   6.247   8.403   2.905
 2499OM     OM1 2499   6.471   8.385   2.766
 2500OM     OM1 2500   6.031   1.377   8.430
 2501OM     OM1 2501   5.825   1.232   8.489
 2502OM     OM1 2502   5.755   9.596   0.570
 2503OM     OM1 2503   5.879   0.212   0.621
 2504OM     OM1 2504   5.959   0.051   0.420
 2505OM     OM1 2505   6.602   1.054   8.572
 2506OM     OM1 2506   6.369   1.151   8.671
 2507OM     OM1 2507   6.666   1.042   8.324
 2508OM     OM1 2508   6.298   9.223   6.596
 2509OM     OM1 2509   6.303   9.173   6.331
 2510OM     OM1 2510   6.338   9.417   6.436
 2511OM     OM1 2511   6.105   9.298   6.445
 2512OM     OM1 2512   9.417   0.799   8.282
 2513OM     OM1 2513   9.332   0.881   8.511
 2514OM     OM1 2514   9.358   0.625   8.487
 2515OM     OM1 2515   9.574   0.766   8.488
 2516OM     OM1 2516   1.377   8.584   1.825
 2517OM     OM1 2517   1.211   8.377   1.828
 2518OM     OM1 2518   1.442   8.354   1.932
 2519OM     OM1 2519   1.261   8.498   2.053
 2520OM     OM1 2520   8.623   8.938   3.189
 2521OM     OM1 2521   8.497   9.167   3.212
 2522OM     OM1 2522   8.632   9.069   3.414
 2523OM     OM1 2523   8.757   9.168   3.221
 2524OM     OM1 2524   8.944   0.669   1.449
 2525OM     OM1 2525   8.955   0.403   1.366
 2526OM     OM1 2526   9.055   0.615   1.233
 2527OM     OM1 2527   9.164   0.530   1.453
 2528OM     OM1 2528   0.501   0.364   8.409
 2529OM     OM1 2529   0.308   0.350   8.576
 2530OM     OM1 2530   0.397   0.135   8.468
 2531OM     OM1 2531   0.247   0.301   8.331
 2532OM     OM1 2532   3.426   0.324   8.477
 2533OM     OM1 2533   3.191   0.436   8.429
 2534OM     OM1 2534   3.247   0.318   8.660
 2535OM     OM1 2535   3.220   0.175   8.439
 2536OM     OM1 2536   6.909   8.762   5.965
 2537OM     OM1 2537   6.973   8.751   5.720
 2538OM     OM1 2538   6.821   8.946   5.796
 2539OM     OM1 2539   2.869   1.048   8.563
 2540OM     OM1 2540   2.812   1.289   8.607
 2541OM     OM1 2541   3.058   1.200   8.670
 2542OM     OM1 2542   7.217   0.693   0.889
 2543OM     OM1 2543   7.013   0.845   0.864
 2544OM     OM1 2544   7.259   0.926   0.779
 2545OM     OM1 2545   6.571   9.036   2.568
 2546OM     OM1 2546   6.724   9.132   2.389
 2547OM     OM1 2547   6.558   8.941   2.329
 2548OM     OM1 2548   6.459   9.171   2.359
 2549OM     OM1 2549   2.028   0.459   3.307
 2550OM     OM1 2550   1.856   0.601   3.417
 2551OM     OM1 2551   2.113   0.647   3.465
 2552OM     OM1 2552   1.995   0.724   3.242
 2553OM     OM1 2553   2.282   0.874   7.096
 2554OM     OM1 2554   2.480   1.043   7.188
 2555OM     OM1 2555   2.237   1.077   7.253
 2556OM     OM1 2556   2.362   0.871   7.344
 2557OM     OM1 2557   2.101   8.281   6.077
 2558OM     OM1 2558   2.285   8.470   5.766
 2559OM     OM1 2559   2.503   8.343   5.840
 2560OM     OM1 2560   2.263   8.236   5.874
 2561OM     OM1 2561   1.182   8.976   1.231
 2562OM     OM1 2562   1.320   9.130   1.077
 2563OM     OM1 2563   1.120   9.237   1.207
 2564OM     OM1 2564   8.540   9.302   0.642
 2565OM     OM1 2565   8.675   9.488   0.506
 2566OM     OM1 2566   8.417   9.486   0.492
 2567OM     OM1 2567   3.425   1.000   8.993
 2568OM     OM1 2568   3.482   1.252   8.953
 2569OM     OM1 2569   3.564   1.128   9.172
 2570OM     OM1 2570   3.669   1.072   8.939
 2571OM     OM1 2571   1.106   0.321   9.266
 2572OM     OM1 2572   1.224   0.168   9.087
 2573OM     OM1 2573   1.174   0.019   8.871
 2574OM     OM1 2574   4.540   0.030   4.800
 2575OM     OM1 2575   4.746   0.120   4.674
 2576OM     OM1 2576   4.680   9.468   4.652
 2577OM     OM1 2577   4.541   0.049   4.538
 2578OM     OM1 2578   8.155   9.445   4.542
 2579OM     OM1 2579   8.411   9.488   4.494
 2580OM     OM1 2580   8.288   0.052   4.645
 2581OM     OM1 2581   9.289   8.471   2.309
 2582OM     OM1 2582   9.551   8.428   2.338
 2583OM     OM1 2583   7.972   0.954   3.179
 2584OM     OM1 2584   7.808   1.239   3.562
 2585OM     OM1 2585   7.901   1.051   3.414
 2586OM     OM1 2586   7.985   1.070   3.668
 2587OM     OM1 2587   1.725   8.275   2.693
 2588OM     OM1 2588   1.914   8.448   2.632
 2589OM     OM1 2589   4.825   1.203   4.073
 2590OM     OM1 2590   4.632   1.122   4.239
 2591OM     OM1 2591   4.570   1.251   4.027
 2592OM     OM1 2592   1.761   8.787   0.405
 2593OM     OM1 2593   1.773   8.734   0.143
 2594OM     OM1 2594   1.546   8.791   0.245
 2595OM     OM1 2595   4.899   8.566   9.048
 2596OM     OM1 2596   5.026   8.716   9.222
 2597OM     OM1 2597   5.020   8.783   8.973
 2598OM     OM1 2598   5.233   0.126   4.749
 2599OM     OM1 2599   5.058   0.078   4.933
 2600OM     OM1 2600   4.982   0.209   4.726
 2601OM     OM1 2601   5.034   9.560   4.699
 2602OM     OM1 2602   5.269   8.363   5.771
 2603OM     OM1 2603   5.072   8.426   5.615
 2604OM     OM1 2604   7.073   8.322   1.566
 2605OM     OM1 2605   6.852   8.210   1.655
 2606OM     OM1 2606   3.088   0.878   7.838
 2607OM     OM1 2607   3.002   0.889   7.601
 2608OM     OM1 2608   3.302   0.744   7.820
 2609OM     OM1 2609   3.109   0.637   7.966
 2610OM     OM1 2610   7.397   0.467   5.794
 2611OM     OM1 2611   7.202   0.380   5.669
 2612OM     OM1 2612   7.406   0.219   5.686
 2613OM     OM1 2613   0.156   9.467   1.217
 2614OM     OM1 2614   0.394   9.440   1.107
 2615OM     OM1 2615   0.186   9.558   0.976
 2616OM     OM1 2616   9.366   0.866   9.217
 2617OM     OM1 2617   9.285   1.007   9.414
 2618OM     OM1 2618   9.536   0.905   9.404
 2619OM     OM1 2619   8.544   0.911   7.391
 2620OM     OM1 2620   8.459   1.154   7.444
 2621OM     OM1 2621   8.470   0.973   7.628
 2622OM     OM1 2622   8.694   1.075   7.538
 2623OM     OM1 2623   6.161   8.328   6.643
 2624OM     OM1 2624   6.030   8.204   6.464
 2625OM     OM1 2625   0.393   0.308   9.274
 2626OM     OM1 2626   0.765   0.210   9.022
 2627OM     OM1 2627   0.612   0.173   9.221
 2628OM     OM1 2628   0.806   0.000   9.171
 2629OM     OM1 2629   6.118   8.579   2.656
 2630OM     OM1 2630   6.295   8.710   2.515
 2631OM     OM1 2631   6.183   8.822   2.710
 2632OM     OM1 2632   4.802   0.911   1.424
 2633OM     OM1 2633   4.871   1.103   1.251
 2634OM     OM1 2634   4.627   1.085   1.327
 2635OM     OM1 2635   4.731   0.889   1.181
 2636OM     OM1 2636   7.068   0.600   1.206
 2637OM     OM1 2637   6.813   0.544   1.249
 2638OM     OM1 2638   6.884   0.735   1.077
 2639OM     OM1 2639   6.914   0.761   1.342
 2640OM     OM1 2640   3.310   0.878   0.469
 2641OM     OM1 2641   3.062   0.950   0.560
 2642OM     OM1 2642   3.166   0.732   0.633
 2643OM     OM1 2643   3.271   0.961   0.714
 2644OM     OM1 2644   0.108   0.062   5.133
 2645OM     OM1 2645   0.056   0.002   5.375
 2646OM     OM1 2646   0.286   9.529   5.261
 2647OM     OM1 2647   3.981   8.736   5.084
 2648OM     OM1 2648   3.895   8.636   5.305
 2649OM     OM1 2649   3.868   8.824   5.480
 2650OM     OM1 2650   4.151   8.646   5.263
 2651OM     OM1 2651   5.665   8.131   3.317
 2652OM     OM1 2652   5.438   8.173   3.197
 2653OM     OM1 2653   5.651   8.321   3.147
 2654OM     OM1 2654   4.350   0.291   7.839
 2655OM     OM1 2655   4.504   0.215   7.644
 2656OM     OM1 2656   4.248   0.127   7.672
 2657OM     OM1 2657   4.447   0.050   7.831
 2658OM     OM1 2658   4.971   0.180   8.322
 2659OM     OM1 2659   5.014   0.044   8.555
 2660OM     OM1 2660   7.011   0.256   9.153
 2661OM     OM1 2661   6.986   0.061   8.988
 2662OM     OM1 2662   7.081   0.008   9.226
 2663OM     OM1 2663   6.831   0.057   9.186
 2664OM     OM1 2664   7.169   9.194   8.333
 2665OM     OM1 2665   7.186   9.402   8.486
 2666OM     OM1 2666   0.244   8.496   4.590
 2667OM     OM1 2667   0.171   8.456   4.339
 2668OM     OM1 2668   6.385   9.029   6.741
 2669OM     OM1 2669   6.645   9.083   6.746
 2670OM     OM1 2670   6.529   9.032   6.527
 2671OM     OM1 2671   6.589   8.842   6.703
 2672OM     OM1 2672   0.372   0.578   1.432
 2673OM     OM1 2673   0.595   0.688   1.528
 2674OM     OM1 2674   0.596   0.573   1.297
 2675OM     OM1 2675   0.561   0.430   1.524
 2676OM     OM1 2676   2.694   9.088   3.351
 2677OM     OM1 2677   2.443   9.167   3.361
 2678OM     OM1 2678   2.561   9.123   3.127
 2679OM     OM1 2679   2.633   9.329   3.263
 2680OM     OM1 2680   7.910   9.310   0.971
 2681OM     OM1 2681   7.939   9.452   0.759
 2682OM     OM1 2682   7.896   9.192   0.735
 2683OM     OM1 2683   7.784   9.147   0.496
 2684OM     OM1 2684   5.127   1.155   5.663
 2685OM     OM1 2685   4.907   1.011   5.592
 2686OM     OM1 2686   5.033   1.008   5.837
 2687OM     OM1 2687   5.129   0.892   5.625
 2688OM     OM1 2688   5.881   8.577   3.420
 2689OM     OM1 2689   5.630   8.588   3.453
 2690OM     OM1 2690   5.762   8.350   3.412
 2691OM     OM1 2691   5.771   8.462   3.634
 2692OM     OM1 2692   4.449   0.686   5.179
 2693OM     OM1 2693   4.530   0.748   4.942
 2694OM     OM1 2694   4.316   0.864   5.041
 2695OM     OM1 2695   4.305   0.619   4.965
 2696OM     OM1 2696   0.826   1.024   2.632
 2697OM     OM1 2697   0.576   1.116   2.689
 2698OM     OM1 2698   0.685   1.145   2.463
 2699OM     OM1 2699   8.120   1.054   2.984
 2700OM     OM1 2700   8.174   1.097   3.236
 2701OM     OM1 2701   8.205   0.853   3.139
 2702OM     OM1 2702   0.260   0.121   5.789
 2703OM     OM1 2703   0.415   0.131   5.590
 2704OM     OM1 2704   0.245   0.329   5.628
 2705OM     OM1 2705   0.452   0.315   5.773
 2706OM     OM1 2706   0.596   8.635   0.711
 2707OM     OM1 2707   0.447   8.668   0.493
 2708OM     OM1 2708   0.642   8.495   0.504
 2709OM     OM1 2709   7.998   9.592   8.468
 2710OM     OM1 2710   8.087   9.336   8.525
 2711OM     OM1 2711   7.866   9.411   8.607
 2712OM     OM1 2712   7.896   9.397   8.348
 2713OM     OM1 2713   8.549   8.648   4.156
 2714OM     OM1 2714   8.477   8.572   3.906
 2715OM     OM1 2715   8.691   8.486   4.025
 2716OM     OM1 2716   8.440   8.422   4.119
 2717OM     OM1 2717   6.826   9.327   5.138
 2718OM     OM1 2718   6.613   9.294   5.300
 2719OM     OM1 2719   6.849   9.206   5.362
 2720OM     OM1 2720   6.796   9.471   5.347
 2721OM     OM1 2721   8.767   8.988   2.100
 2722OM     OM1 2722   8.534   9.002   2.223
 2723OM     OM1 2723   8.537   8.977   1.963
 2724OM     OM1 2724   8.621   8.776   2.117
 2725OM     OM1 2725   9.104   0.133   5.444
 2726OM     OM1 2726   9.281   0.318   5.404
 2727OM     OM1 2727   9.062   0.304   5.253
 2728OM     OM1 2728   9.262   0.130   5.236
 2729OM     OM1 2729   7.476   8.366   3.361
 2730OM     OM1 2730   7.415   8.167   3.506
 2731OM     OM1 2731   7.660   8.246   3.504
 2732OM     OM1 2732   9.252   1.179   1.592
 2733OM     OM1 2733   9.516   1.144   1.578
 2734OM     OM1 2734   9.350   0.962   1.484
 2735OM     OM1 2735   2.643   0.690   7.723
 2736OM     OM1 2736   2.776   0.472   7.815
 2737OM     OM1 2737   2.712   0.505   7.566
 2738OM     OM1 2738   3.270   8.692   0.016
 2739OM     OM1 2739   3.166   8.768   0.241
 2740OM     OM1 2740   3.024   8.792   0.036
 2741OM     OM1 2741   3.078   8.548   0.116
 2742OM     OM1 2742   0.999   8.810   1.658
 2743OM     OM1 2743   1.163   8.987   1.723
 2744OM     OM1 2744   1.258   8.745   1.659
 2745OM     OM1 2745   1.162   8.887   1.472
 2746OM     OM1 2746   6.893   1.085   5.100
 2747OM     OM1 2747   7.152   1.070   5.122
 2748OM     OM1 2748   7.017   1.106   5.340
 2749OM     OM1 2749   6.388   9.488   0.935
 2750OM     OM1 2750   6.134   9.422   0.994
 2751OM     OM1 2751   6.293   9.256   0.884
 2752OM     OM1 2752   6.218   9.454   0.740
 2753OM     OM1 2753   8.319   8.667   7.036
 2754OM     OM1 2754   8.117   8.519   6.819
 2755OM     OM1 2755   8.369   8.794   6.813
 2756OM     OM1 2756   8.369   8.540   6.816
 2757OM     OM1 2757   9.226   9.506   7.916
 2758OM     OM1 2758   9.176   0.073   7.730
 2759OM     OM1 2759   9.416   0.085   7.824
 2760OM     OM1 2760   9.221   0.152   7.975
 2761OM     OM1 2761   4.083   0.572   1.051
 2762OM     OM1 2762   3.948   0.524   1.265
 2763OM     OM1 2763   4.218   0.568   1.276
 2764OM     OM1 2764   4.476   8.886   5.035
 2765OM     OM1 2765   4.734   8.819   5.053
 2766OM     OM1 2766   4.611   8.785   4.828
 2767OM     OM1 2767   4.655   9.025   4.917
 2768OM     OM1 2768   0.741   0.854   2.173
 2769OM     OM1 2769   0.873   1.013   1.991
 2770OM     OM1 2770   0.616   0.997   2.004
 2771OM     OM1 2771   0.556   0.905   3.723
 2772OM     OM1 2772   0.537   0.938   3.329
 2773OM     OM1 2773   0.376   0.953   3.523
 2774OM     OM1 2774   0.485   0.722   3.549
 2775OM     OM1 2775   3.895   8.402   3.259
 2776OM     OM1 2776   4.119   8.400   3.133
 2777OM     OM1 2777   1.801   9.246   6.107
 2778OM     OM1 2778   1.688   9.018   6.046
 2779OM     OM1 2779   1.756   9.188   5.852
 2780OM     OM1 2780   9.510   1.091   3.602
 2781OM     OM1 2781   0.051   0.881   3.662
 2782OM     OM1 2782   9.461   0.856   3.492
 2783OM     OM1 2783   9.405   0.883   3.742
 2784OM     OM1 2784   9.039   0.529   4.329
 2785OM     OM1 2785   8.822   0.666   4.411
 2786OM     OM1 2786   8.851   0.569   4.166
 2787OM     OM1 2787   8.820   0.407   4.374
 2788OM     OM1 2788   6.954   0.731   6.876
 2789OM     OM1 2789   6.936   0.474   6.887
 2790OM     OM1 2790   6.945   0.598   6.660
 2791OM     OM1 2791   1.628   0.404   4.024
 2792OM     OM1 2792   1.452   0.255   3.897
 2793OM     OM1 2793   1.464   0.594   4.084
 2794OM     OM1 2794   3.576   9.530   2.191
 2795OM     OM1 2795   3.615   0.129   2.347
 2796OM     OM1 2796   3.486   0.167   2.135
 2797OM     OM1 2797   3.520   0.095   2.579
 2798OM     OM1 2798   6.872   0.274   6.625
 2799OM     OM1 2799   7.046   0.413   6.509
 2800OM     OM1 2800   2.770   8.821   7.336
 2801OM     OM1 2801   2.569   8.949   7.234
 2802OM     OM1 2802   2.549   8.725   7.418
 2803OM     OM1 2803   0.123   0.565   9.412
 2804OM     OM1 2804   0.373   0.655   9.415
 2805OM     OM1 2805   0.182   0.815   9.457
 2806OM     OM1 2806   3.676   0.200   4.936
 2807OM     OM1 2807   3.526   0.207   5.148
 2808OM     OM1 2808   3.692   0.023   5.132
 2809OM     OM1 2809   3.494   0.014   4.958
 2810OM     OM1 2810   5.179   8.782   3.371
 2811OM     OM1 2811   5.135   8.797   3.627
 2812OM     OM1 2812   4.935   8.777   3.462
 2813OM     OM1 2813   5.068   9.003   3.484
 2814OM     OM1 2814   8.307   8.738   7.714
 2815OM     OM1 2815   8.372   9.038   7.666
 2816OM     OM1 2816   8.467   8.606   7.558
 2817OM     OM1 2817   8.628   9.036   7.682
 2818OM     OM1 2818   7.649   9.353   5.705
 2819OM     OM1 2819   7.768   9.529   5.545
 2820OM     OM1 2820   7.895   9.396   5.728
 2821OM     OM1 2821   7.808   9.272   5.511
 2822OM     OM1 2822   5.842   8.559   2.172
 2823OM     OM1 2823   6.003   8.673   1.988
 2824OM     OM1 2824   5.835   8.809   2.135
 2825OM     OM1 2825   2.693   0.324   1.559
 2826OM     OM1 2826   2.527   0.266   1.753
 2827OM     OM1 2827   2.468   0.197   1.507
 2828OM     OM1 2828   2.656   0.073   1.642
 2829OM     OM1 2829   5.955   0.311   9.271
 2830OM     OM1 2830   5.901   0.241   9.510
 2831OM     OM1 2831   5.711   0.226   9.327
 2832OM     OM1 2832   9.100   0.956   8.616
 2833OM     OM1 2833   8.999   0.836   8.834
 2834OM     OM1 2834   4.538   9.426   0.145
 2835OM     OM1 2835   4.770   9.499   0.016
 2836OM     OM1 2836   4.733   9.520   0.278
 2837OM     OM1 2837   6.544   1.167   6.261
 2838OM     OM1 2838   6.650   1.018   6.445
 2839OM     OM1 2839   6.746   1.254   6.377
 2840OM     OM1 2840   8.261   0.496   0.523
 2841OM     OM1 2841   8.526   0.470   0.502
 2842OM     OM1 2842   8.423   0.555   0.723
 2843OM     OM1 2843   8.418   0.705   0.511
 2844OM     OM1 2844   4.572   0.371   7.443
 2845OM     OM1 2845   4.493   0.338   7.190
 2846OM     OM1 2846   4.333   0.463   7.357
 2847OM     OM1 2847   4.381   0.218   7.391
 2848OM     OM1 2848   1.526   9.559   4.062
 2849OM     OM1 2849   1.587   9.398   4.251
 2850OM     OM1 2850   1.773   9.508   4.109
 2851OM     OM1 2851   1.441   8.794   2.650
 2852OM     OM1 2852   1.525   8.565   2.719
 2853OM     OM1 2853   1.655   8.700   2.533
 2854OM     OM1 2854   0.295   0.713   1.980
 2855OM     OM1 2855   0.143   0.553   2.128
 2856OM     OM1 2856   0.219   0.492   1.891
 2857OM     OM1 2857   8.259   1.070   2.152
 2858OM     OM1 2858   6.469   0.628   2.866
 2859OM     OM1 2859   6.243   0.665   2.731
 2860OM     OM1 2860   6.387   0.869   2.797
 2861OM     OM1 2861   6.483   0.420   2.730
 2862OM     OM1 2862   9.255   8.822   6.828
 2863OM     OM1 2863   9.240   8.668   6.633
 2864OM     OM1 2864   1.614   0.690   3.420
 2865OM     OM1 2865   1.637   0.447   3.362
 2866OM     OM1 2866   1.650   0.299   3.147
 2867OM     OM1 2867   4.598   8.844   2.154
 2868OM     OM1 2868   4.835   8.749   2.220
 2869OM     OM1 2869   4.733   8.688   1.998
 2870OM     OM1 2870   4.813   8.945   2.041
 2871OM     OM1 2871   7.311   0.295   4.800
 2872OM     OM1 2872   7.424   0.482   4.668
 2873OM     OM1 2873   7.351   0.263   4.538
 2874OM     OM1 2874   1.983   1.020   4.139
 2875OM     OM1 2875   1.726   1.016   4.197
 2876OM     OM1 2876   1.800   1.073   3.948
 2877OM     OM1 2877   1.703   0.317   0.809
 2878OM     OM1 2878   1.645   0.082   0.918
 2879OM     OM1 2879   1.793   0.097   0.706
 2880OM     OM1 2880   1.789   0.635   0.324
 2881OM     OM1 2881   1.983   0.492   0.408
 2882OM     OM1 2882   1.867   0.409   0.191
 2883OM     OM1 2883   2.011   0.635   0.198
 2884OM     OM1 2884   2.652   8.263   5.651
 2885OM     OM1 2885   2.738   8.452   5.802
 2886OM     OM1 2886   1.225   8.968   7.603
 2887OM     OM1 2887   1.270   9.148   7.789
 2888OM     OM1 2888   1.379   8.923   7.812
 2889OM     OM1 2889   9.048   8.361   1.571
 2890OM     OM1 2890   9.291   8.420   1.629
 2891OM     OM1 2891   9.095   8.501   1.788
 2892OM     OM1 2892   3.707   0.965   7.253
 2893OM     OM1 2893   3.718   1.149   7.078
 2894OM     OM1 2894   3.697   0.961   6.773
 2895OM     OM1 2895   3.765   0.897   7.009
 2896OM     OM1 2896   6.590   8.631   4.970
 2897OM     OM1 2897   6.646   8.736   4.722
 2898OM     OM1 2898   6.493   8.534   4.746
 2899OM     OM1 2899   6.748   8.513   4.794
 2900OM     OM1 2900   7.717   0.091   0.955
 2901OM     OM1 2901   7.769   0.059   0.713
 2902OM     OM1 2902   7.767   0.304   0.806
 2903OM     OM1 2903   9.225   0.113   4.100
 2904OM     OM1 2904   8.968   0.118   4.059
 2905OM     OM1 2905   9.079   0.288   4.231
 2906OM     OM1 2906   0.548   8.561   7.440
 2907OM     OM1 2907   0.819   8.877   7.502
 2908OM     OM1 2908   0.573   8.803   7.544
 2909OM     OM1 2909   4.297   9.402   8.783
 2910OM     OM1 2910   4.160   9.482   8.581
 2911OM     OM1 2911   4.041   9.451   8.804
 2912OM     OM1 2912   0.404   1.130   2.081
 2913OM     OM1 2913   0.632   1.172   2.197
 2914OM     OM1 2914   0.589   1.252   1.945
 2915OM     OM1 2915   6.633   9.541   8.414
 2916OM     OM1 2916   6.757   0.126   8.286
 2917OM     OM1 2917   6.651   9.531   8.153
 2918OM     OM1 2918   4.371   9.224   0.115
 2919OM     OM1 2919   4.390   9.415   9.548
 2920OM     OM1 2920   4.274   9.453   0.184
 2921OM     OM1 2921   6.233   1.356   8.581
 2922OM     OM1 2922   6.137   1.205   8.769
 2923OM     OM1 2923   4.931   8.864   8.349
 2924OM     OM1 2924   4.984   8.824   8.095
 2925OM     OM1 2925   4.741   8.867   8.179
 2926OM     OM1 2926   4.919   9.060   8.168
 2927OM     OM1 2927   1.763   8.642   6.175
 2928OM     OM1 2928   1.942   8.493   6.066
 2929OM     OM1 2929   1.774   8.628   5.914
 2930OM     OM1 2930   1.973   8.744   6.037
 2931OM     OM1 2931   3.113   9.256   0.210
 2932OM     OM1 2932   3.099   9.138   9.582
 2933OM     OM1 2933   3.213   9.021   0.180
 2934OM     OM1 2934   4.562   9.532   8.577
 2935OM     OM1 2935   4.802   9.545   8.670
 2936OM     OM1 2936   4.601   9.538   8.840
 2937OM     OM1 2937   8.617   0.132   7.440
 2938OM     OM1 2938   8.382   0.216   7.385
 2939OM     OM1 2939   8.557   0.367   7.526
 2940OM     OM1 2940   4.861   0.817   6.834
 2941OM     OM1 2941   4.650   0.695   6.876
 2942OM     OM1 2942   4.707   0.774   6.627
 2943OM     OM1 2943   4.842   0.576   7.023
 2944OM     OM1 2944   8.721   8.463   3.208
 2945OM     OM1 2945   8.468   8.403   3.189
 2946OM     OM1 2946   8.579   8.415   3.424
 2947OM     OM1 2947   7.648   0.513   6.963
 2948OM     OM1 2948   7.851   0.392   6.865
 2949OM     OM1 2949   7.709   0.563   6.712
 2950OM     OM1 2950   7.859   0.657   6.890
 2951OM     OM1 2951   3.448   8.760   5.127
 2952OM     OM1 2952   3.594   8.526   5.140
 2953OM     OM1 2953   3.346   8.533   5.074
 2954OM     OM1 2954   3.511   8.651   4.911
 2955OM     OM1 2955   1.748   0.029   1.769
 2956OM     OM1 2956   1.688   0.298   1.775
 2957OM     OM1 2957   1.854   0.206   1.605
 2958OM     OM1 2958   2.863   9.231   5.959
 2959OM     OM1 2959   2.654   9.080   5.917
 2960OM     OM1 2960   2.750   9.226   5.726
 2961OM     OM1 2961   2.888   9.022   5.791
 2962OM     OM1 2962   2.225   0.975   8.915
 2963OM     OM1 2963   2.186   1.234   9.009
 2964OM     OM1 2964   2.415   1.103   9.023
 2965OM     OM1 2965   2.323   1.179   8.796
 2966OM     OM1 2966   7.827   9.015   6.569
 2967OM     OM1 2967   7.637   8.999   6.768
 2968OM     OM1 2968   7.670   9.206   6.607
 2969OM     OM1 2969   7.567   8.986   6.519
 2970OM     OM1 2970   5.045   0.884   9.478
 2971OM     OM1 2971   5.173   0.844   9.241
 2972OM     OM1 2972   5.178   0.848   8.978
 2973OM     OM1 2973   5.301   0.903   9.460
 2974OM     OM1 2974   7.299   0.169   3.282
 2975OM     OM1 2975   7.297   0.251   3.533
 2976OM     OM1 2976   7.122   0.345   3.360
 2977OM     OM1 2977   7.108   0.101   3.447
 2978OM     OM1 2978   2.500   0.009   8.963
 2979OM     OM1 2979   2.350   0.161   9.125
 2980OM     OM1 2980   2.246   0.008   8.945
 2981OM     OM1 2981   2.388   0.232   8.878
 2982OM     OM1 2982   6.745   0.131   4.843
 2983OM     OM1 2983   6.713   0.058   4.589
 2984OM     OM1 2984   6.556   9.576   4.787
 2985OM     OM1 2985   6.811   9.502   4.767
 2986OM     OM1 2986   3.918   8.292   3.702
 2987OM     OM1 2987   4.024   8.490   3.569
 2988OM     OM1 2988   4.149   8.374   3.764
 2989OM     OM1 2989   7.120   8.515   1.402
 2990OM     OM1 2990   7.274   8.301   1.415
 2991OM     OM1 2991   7.089   8.206   1.785
 2992OM     OM1 2992   2.389   8.825   2.306
 2993OM     OM1 2993   2.494   8.592   2.352
 2994OM     OM1 2994   2.394   8.658   2.106
 2995OM     OM1 2995   2.248   8.607   2.326
 2996OM     OM1 2996   2.989   1.142   2.391
 2997OM     OM1 2997   2.734   1.178   2.366
 2998OM     OM1 2998   4.098   8.862   2.545
 2999OM     OM1 2999   4.058   9.109   2.573
 3000OM     OM1 3000   4.303   9.019   2.526
 3001OM     OM1 3001   4.141   9.012   2.329
 3002OM     OM1 3002   9.428   8.931   8.730
 3003OM     OM1 3003   9.507   8.888   8.971
 3004OM     OM1 3004   3.899   0.939   3.320
 3005OM     OM1 3005   3.859   0.888   3.049
 3006OM     OM1 3006   4.096   0.891   3.161
 3007OM     OM1 3007   5.646   0.584   3.940
 3008OM     OM1 3008   6.074   0.515   3.786
 3009OM     OM1 3009   5.640   0.532   3.683
 3010OM     OM1 3010   5.829   0.428   3.828
 3011OM     OM1 3011   1.667   1.173   2.363
 3012OM     OM1 3012   1.453   1.026   2.328
 3013OM     OM1 3013   1.454   1.289   2.266
 3014OM     OM1 3014   1.460   1.200   2.514
 3015OM     OM1 3015   6.127   9.485   0.493
 3016OM     OM1 3016   5.911   9.408   0.357
 3017OM     OM1 3017   6.112   9.539   0.236
 3018OM     OM1 3018   2.685   8.739   0.933
 3019OM     OM1 3019   2.545   8.839   0.743
 3020OM     OM1 3020   2.786   8.715   0.698
 3021OM     OM1 3021   2.572   8.577   0.748
 3022OM     OM1 3022   5.996   0.162   8.061
 3023OM     OM1 3023   6.237   0.121   8.161
 3024OM     OM1 3024   6.052   9.545   8.189
 3025OM     OM1 3025   5.575   0.341   6.368
 3026OM     OM1 3026   5.398   0.497   6.462
 3027OM     OM1 3027   5.633   0.488   6.569
 3028OM     OM1 3028   5.597   0.597   6.324
 3029OM     OM1 3029   7.039   8.668   3.877
 3030OM     OM1 3030   6.928   8.897   3.969
 3031OM     OM1 3031   6.989   8.682   4.121
 3032OM     OM1 3032   7.168   8.851   4.031
 3033OM     OM1 3033   6.154   1.174   6.267
 3034OM     OM1 3034   5.944   1.333   6.231
 3035OM     OM1 3035   6.081   1.343   6.444
 3036OM     OM1 3036   5.118   8.991   8.853
 3037OM     OM1 3037   5.175   8.763   8.756
 3038OM     OM1 3038   5.275   8.833   8.996
 3039OM     OM1 3039   0.063   1.255   3.937
 3040OM     OM1 3040   0.125   1.129   4.145
 3041OM     OM1 3041   9.529   1.300   4.160
 3042OM     OM1 3042   8.670   1.210   1.251
 3043OM     OM1 3043   1.194   9.121   2.398
 3044OM     OM1 3044   1.203   8.929   2.222
 3045OM     OM1 3045   1.020   8.926   2.405
 3046OM     OM1 3046   1.311   9.342   2.333
 3047OM     OM1 3047   2.332   1.242   3.811
 3048OM     OM1 3048   2.366   1.284   4.057
 3049OM     OM1 3049   3.489   0.318   5.383
 3050OM     OM1 3050   3.233   0.333   5.356
 3051OM     OM1 3051   3.328   0.289   5.595
 3052OM     OM1 3052   3.371   0.525   5.471
 3053OM     OM1 3053   2.237   0.040   3.793
 3054OM     OM1 3054   2.314   0.250   3.653
 3055OM     OM1 3055   2.066   0.198   3.692
 3056OM     OM1 3056   4.430   8.649   7.373
 3057OM     OM1 3057   4.362   8.848   7.639
 3058OM     OM1 3058   7.393   0.884   5.450
 3059OM     OM1 3059   7.501   1.097   5.351
 3060OM     OM1 3060   7.527   0.867   5.237
 3061OM     OM1 3061   9.021   0.008   6.962
 3062OM     OM1 3062   8.766   0.080   6.975
 3063OM     OM1 3063   9.164   8.749   9.323
 3064OM     OM1 3064   8.956   8.757   9.474
 3065OM     OM1 3065   9.206   8.810   9.567
 3066OM     OM1 3066   9.131   8.568   9.523
 3067OM     OM1 3067   3.970   9.388   9.393
 3068OM     OM1 3068   4.158   9.205   9.446
 3069OM     OM1 3069   4.093   9.397   0.017
 3070OM     OM1 3070   8.990   8.656   6.205
 3071OM     OM1 3071   9.140   8.444   6.223
 3072OM     OM1 3072   8.962   8.496   6.413
 3073OM     OM1 3073   9.177   8.647   6.381
 3074OM     OM1 3074   5.456   0.140   7.391
 3075OM     OM1 3075   5.663   0.016   7.466
 3076OM     OM1 3076   5.655   0.288   7.452
 3077OM     OM1 3077   0.778   0.299   1.561
 3078OM     OM1 3078   0.639   0.365   1.770
 3079OM     OM1 3079   0.550   0.177   1.607
 3080OM     OM1 3080   9.454   0.781   0.218
 3081OM     OM1 3081   9.393   0.559   0.328
 3082OM     OM1 3082   4.129   0.163   6.965
 3083OM     OM1 3083   4.211   0.304   6.773
 3084OM     OM1 3084   9.482   8.786   9.220
 3085OM     OM1 3085   0.274   8.872   9.262
 3086OM     OM1 3086   0.056   8.848   9.395
 3087OM     OM1 3087   6.214   8.787   8.844
 3088OM     OM1 3088   6.056   8.805   9.048
 3089OM     OM1 3089   6.179   8.576   9.002
 3090OM     OM1 3090   1.838   0.353   7.817
 3091OM     OM1 3091   2.038   0.474   7.928
 3092OM     OM1 3092   1.803   0.500   8.036
 3093OM     OM1 3093   1.914   0.271   8.053
 3094OM     OM1 3094   2.850   0.239   0.877
 3095OM     OM1 3095   3.108   0.202   0.836
 3096OM     OM1 3096   2.964   9.605   0.889
 3097OM     OM1 3097   5.138   0.554   3.888
 3098OM     OM1 3098   5.314   0.659   4.037
 3099OM     OM1 3099   5.121   0.806   3.959
 3100OM     OM1 3100   1.480   8.298   1.687
 3101OM     OM1 3101   1.431   8.316   1.425
 3102OM     OM1 3102   1.592   9.568   1.144
 3103OM     OM1 3103   1.842   0.006   1.071
 3104OM     OM1 3104   1.918   8.373   9.489
 3105OM     OM1 3105   1.813   8.331   0.124
 3106OM     OM1 3106   2.045   8.238   0.071
 3107OM     OM1 3107   4.780   1.053   8.467
 3108OM     OM1 3108   4.968   1.056   8.276
 3109OM     OM1 3109   4.792   1.372   8.295
 3110OM     OM1 3110   5.808   0.826   2.645
 3111OM     OM1 3111   6.022   0.689   2.571
 3112OM     OM1 3112   5.917   0.845   2.396
 3113OM     OM1 3113   6.482   0.152   3.777
 3114OM     OM1 3114   6.639   0.150   3.572
 3115OM     OM1 3115   6.693   0.313   3.774
 3116OM     OM1 3116   6.486   0.356   3.620
 3117OM     OM1 3117   5.012   9.596   8.814
 3118OM     OM1 3118   5.009   9.397   8.634
 3119OM     OM1 3119   3.823   8.265   9.325
 3120OM     OM1 3120   3.801   8.405   9.108
 3121OM     OM1 3121   4.032   8.358   9.213
 3122OM     OM1 3122   0.413   9.472   8.118
 3123OM     OM1 3123   0.642   9.353   8.122
 3124OM     OM1 3124   0.624   0.009   8.078
 3125OM     OM1 3125   0.537   9.448   7.890
 3126OM     OM1 3126   8.769   0.778   7.053
 3127OM     OM1 3127   8.630   0.940   6.885
 3128OM     OM1 3128   8.546   0.878   7.129
 3129OM     OM1 3129   8.554   0.696   6.940
 3130OM     OM1 3130   6.533   0.427   8.379
 3131OM     OM1 3131   6.370   0.566   8.242
 3132OM     OM1 3132   6.416   0.315   8.171
 3133OM     OM1 3133   3.424   8.422   0.984
 3134OM     OM1 3134   3.323   8.656   1.019
 3135OM     OM1 3135   3.513   8.620   0.835
 3136OM     OM1 3136   3.423   8.869   1.124
 3137OM     OM1 3137   2.675   8.925   7.804
 3138OM     OM1 3138   2.532   9.147   7.759
 3139OM     OM1 3139   2.773   9.165   7.841
 3140OM     OM1 3140   9.241   9.115   3.072
 3141OM     OM1 3141   9.344   9.244   2.884
 3142OM     OM1 3142   9.379   9.332   3.131
 3143OM     OM1 3143   9.136   9.352   3.012
 3144OM     OM1 3144   0.500   9.090   3.118
 3145OM     OM1 3145   0.538   9.315   2.986
 3146OM     OM1 3146   0.681   9.253   3.203
 3147OM     OM1 3147   0.062   8.235   3.898
 3148OM     OM1 3148   9.037   8.397   5.726
 3149OM     OM1 3149   9.238   8.483   5.591
 3150OM     OM1 3150   2.030   0.401   1.614
 3151OM     OM1 3151   1.892   0.593   1.517
 3152OM     OM1 3152   1.990   0.639   1.757
 3153OM     OM1 3153   2.147   0.635   1.572
 3154OM     OM1 3154   4.177   0.411   5.868
 3155OM     OM1 3155   4.429   0.471   5.958
 3156OM     OM1 3156   4.329   0.249   6.026
 3157OM     OM1 3157   0.882   0.047   1.965
 3158OM     OM1 3158   0.651   9.599   2.081
 3159OM     OM1 3159   0.758   9.418   1.919
 3160OM     OM1 3160   0.866   9.469   2.147
 3161OM     OM1 3161   4.666   1.275   8.096
 3162OM     OM1 3162   4.041   0.069   8.058
 3163OM     OM1 3163   3.785   9.601   8.012
 3164OM     OM1 3164   3.958   9.446   8.133
 3165OM     OM1 3165   8.347   9.094   4.224
 3166OM     OM1 3166   8.516   9.252   4.106
 3167OM     OM1 3167   8.389   9.054   3.975
 3168OM     OM1 3168   8.577   9.005   4.165
 3169OM     OM1 3169   6.608   8.885   8.156
 3170OM     OM1 3170   6.669   8.728   8.354
 3171OM     OM1 3171   6.579   8.622   8.129
 3172OM     OM1 3172   6.421   8.757   8.283
 3173OM     OM1 3173   9.189   8.984   6.629
 3174OM     OM1 3174   9.192   9.237   6.594
 3175OM     OM1 3175   9.316   9.091   6.422
 3176OM     OM1 3176   9.055   9.085   6.427
 3177OM     OM1 3177   5.716   9.022   4.678
 3178OM     OM1 3178   5.567   8.920   4.486
 3179OM     OM1 3179   5.581   8.807   4.728
 3180OM     OM1 3180   5.780   8.796   4.574
 3181OM     OM1 3181   1.751   9.184   8.293
 3182OM     OM1 3182   1.608   9.121   8.499
 3183OM     OM1 3183   1.732   8.936   8.367
 3184OM     OM1 3184   3.785   1.293   6.674
 3185OM     OM1 3185   2.111   9.005   5.498
 3186OM     OM1 3186   2.366   9.000   5.436
 3187OM     OM1 3187   2.212   9.210   5.365
 3188OM     OM1 3188   6.132   8.377   8.849
 3189OM     OM1 3189   6.302   8.301   8.670
 3190OM     OM1 3190   0.775   0.863   8.978
 3191OM     OM1 3191   0.658   1.024   9.140
 3192OM     OM1 3192   0.740   1.097   8.892
 3193OM     OM1 3193   0.908   1.060   9.094
 3194OM     OM1 3194   6.640   0.911   6.907
 3195OM     OM1 3195   6.774   1.114   6.990
 3196OM     OM1 3196   6.593   0.724   7.088
 3197OM     OM1 3197   6.893   0.970   6.827
 3198OM     OM1 3198   3.208   9.415   2.032
 3199OM     OM1 3199   3.404   9.268   1.946
 3200OM     OM1 3200   3.232   9.162   2.111
 3201OM     OM1 3201   3.402   9.339   2.193
 3202OM     OM1 3202   3.043   9.324   7.484
 3203OM     OM1 3203   2.898   9.346   7.697
 3204OM     OM1 3204   2.848   9.512   7.501
 3205OM     OM1 3205   3.063   9.536   7.641
 3206OM     OM1 3206   8.395   8.442   7.363
 3207OM     OM1 3207   8.248   8.324   7.172
 3208OM     OM1 3208   8.198   8.564   7.243
 3209OM     OM1 3209   5.591   9.045   2.792
 3210OM     OM1 3210   5.480   9.063   3.029
 3211OM     OM1 3211   5.500   9.273   2.895
 3212OM     OM1 3212   5.323   9.101   2.819
 3213OM     OM1 3213   1.654   0.855   0.411
 3214OM     OM1 3214   1.509   0.442   0.319
 3215OM     OM1 3215   1.567   0.693   0.228
 3216OM     OM1 3216   0.221   8.871   0.178
 3217OM     OM1 3217   0.225   8.792   0.426
 3218OM     OM1 3218   0.346   9.011   0.356
 3219OM     OM1 3219   0.282   8.284   0.315
 3220OM     OM1 3220   0.101   8.434   0.193
 3221OM     OM1 3221   0.073   8.357   0.443
 3222OM     OM1 3222   0.252   8.533   0.389
 3223OM     OM1 3223   4.275   8.185   0.789
 3224OM     OM1 3224   4.488   8.315   0.708
 3225OM     OM1 3225   1.122   9.044   3.606
 3226OM     OM1 3226   1.143   9.130   3.359
 3227OM     OM1 3227   1.112   9.294   3.548
 3228OM     OM1 3228   1.343   9.182   3.521
 3229OM     OM1 3229   8.447   0.998   3.302
 3230OM     OM1 3230   8.378   0.744   3.289
 3231OM     OM1 3231   8.623   0.814   3.315
 3232OM     OM1 3232   8.463   0.838   3.518
 3233OM     OM1 3233   2.180   9.095   5.020
 3234OM     OM1 3234   2.085   8.762   4.761
 3235OM     OM1 3235   1.920   8.940   4.707
 3236OM     OM1 3236   3.551   9.472   8.909
 3237OM     OM1 3237   3.550   9.310   9.114
 3238OM     OM1 3238   3.325   9.348   8.987
 3239OM     OM1 3239   3.420   9.543   9.123
 3240OM     OM1 3240   9.015   0.648   5.066
 3241OM     OM1 3241   8.829   0.510   4.950
 3242OM     OM1 3242   8.751   0.704   5.109
 3243OM     OM1 3243   1.917   0.191   8.303
 3244OM     OM1 3244   1.698   0.166   8.173
 3245OM     OM1 3245   1.887   0.013   8.110
 3246OM     OM1 3246   6.230   8.610   8.392
 3247OM     OM1 3247   6.219   8.764   8.594
 3248OM     OM1 3248   6.158   8.507   8.624
 3249OM     OM1 3249   5.996   8.661   8.503
 3250OM     OM1 3250   4.978   0.770   8.093
 3251OM     OM1 3251   4.897   0.630   8.293
 3252OM     OM1 3252   4.957   0.516   8.073
 3253OM     OM1 3253   1.570   1.154   5.503
 3254OM     OM1 3254   1.350   1.002   5.457
 3255OM     OM1 3255   1.572   0.961   5.346
 3256OM     OM1 3256   2.343   9.426   6.246
 3257OM     OM1 3257   2.392   9.374   6.498
 3258OM     OM1 3258   2.412   9.185   6.310
 3259OM     OM1 3259   2.585   9.389   6.312
 3260OM     OM1 3260   8.021   0.625   2.950
 3261OM     OM1 3261   8.082   0.402   3.080
 3262OM     OM1 3262   8.249   0.602   3.087
 3263OM     OM1 3263   8.203   0.470   2.863
 3264OM     OM1 3264   0.227   8.640   0.631
 3265OM     OM1 3265   9.507   9.518   3.281
 3266OM     OM1 3266   9.534   0.058   3.507
 3267OM     OM1 3267   9.305   9.552   3.426
 3268OM     OM1 3268   9.406   0.155   3.314
 3269OM     OM1 3269   2.865   0.151   8.983
 3270OM     OM1 3270   3.071   0.194   9.148
 3271OM     OM1 3271   2.828   0.242   9.230
 3272OM     OM1 3272   2.933   0.390   9.051
 3273OM     OM1 3273   3.465   9.053   1.814
 3274OM     OM1 3274   3.357   9.088   1.571
 3275OM     OM1 3275   3.403   8.849   1.664
 3276OM     OM1 3276   3.600   9.007   1.596
 3277OM     OM1 3277   2.396   0.016   7.265
 3278OM     OM1 3278   2.622   0.030   7.393
 3279OM     OM1 3279   1.730   9.079   3.272
 3280OM     OM1 3280   1.619   9.205   3.071
 3281OM     OM1 3281   1.504   9.192   3.315
 3282OM     OM1 3282   6.470   8.501   1.947
 3283OM     OM1 3283   6.237   8.602   1.905
 3284OM     OM1 3284   4.553   1.131   4.482
 3285OM     OM1 3285   4.453   1.274   4.674
 3286OM     OM1 3286   4.829   0.062   3.686
 3287OM     OM1 3287   4.842   9.405   3.704
 3288OM     OM1 3288   3.233   9.232   5.921
 3289OM     OM1 3289   3.414   9.331   6.083
 3290OM     OM1 3290   3.443   9.084   5.981
 3291OM     OM1 3291   3.717   9.258   6.771
 3292OM     OM1 3292   3.758   8.937   6.728
 3293OM     OM1 3293   3.761   9.086   6.954
 3294OM     OM1 3294   3.975   9.016   6.833
 3295OM     OM1 3295   8.224   8.956   3.782
 3296OM     OM1 3296   8.167   8.929   4.034
 3297OM     OM1 3297   8.158   9.163   3.929
 3298OM     OM1 3298   4.946   0.803   2.144
 3299OM     OM1 3299   4.947   1.111   1.832
 3300OM     OM1 3300   4.894   1.054   2.091
 3301OM     OM1 3301   4.722   1.192   1.941
 3302OM     OM1 3302   2.001   8.320   5.005
 3303OM     OM1 3303   1.920   8.266   4.764
 3304OM     OM1 3304   1.814   8.469   4.887
 3305OM     OM1 3305   7.516   9.162   3.057
 3306OM     OM1 3306   7.477   9.282   3.290
 3307OM     OM1 3307   7.531   9.421   3.080
 3308OM     OM1 3308   7.302   9.309   3.098
 3309OM     OM1 3309   8.126   9.263   0.826
 3310OM     OM1 3310   8.224   9.137   1.025
 3311OM     OM1 3311   8.207   9.010   0.799
 3312OM     OM1 3312   8.391   9.199   0.829
 3313OM     OM1 3313   8.536   0.899   1.374
 3314OM     OM1 3314   8.621   0.658   1.434
 3315OM     OM1 3315   8.769   0.856   1.503
 3316OM     OM1 3316   8.531   0.826   1.620
 3317OM     OM1 3317   3.902   0.462   8.905
 3318OM     OM1 3318   4.001   0.458   8.659
 3319OM     OM1 3319   3.842   0.268   8.739
 3320OM     OM1 3320   2.046   0.758   1.974
 3321OM     OM1 3321   1.801   0.766   1.870
 3322OM     OM1 3322   1.978   0.912   1.762
 3323OM     OM1 3323   8.710   9.112   7.250
 3324OM     OM1 3324   8.897   8.968   7.362
 3325OM     OM1 3325   0.740   9.568   9.595
 3326OM     OM1 3326   0.886   9.368   0.100
 3327OM     OM1 3327   0.999   9.584   0.021
 3328OM     OM1 3328   0.971   9.141   0.013
 3329OM     OM1 3329   1.817   1.093   4.421
 3330OM     OM1 3330   2.023   0.926   4.497
 3331OM     OM1 3331   1.874   1.058   4.667
 3332OM     OM1 3332   2.043   1.184   4.503
 3333OM     OM1 3333   4.317   1.233   8.380
 3334OM     OM1 3334   4.071   1.173   8.356
 3335OM     OM1 3335   4.220   1.133   8.151
 3336OM     OM1 3336   9.179   1.253   1.915
 3337OM     OM1 3337   9.042   1.293   1.696
 3338OM     OM1 3338   2.826   1.421   5.656
 3339OM     OM1 3339   2.942   1.261   5.502
 3340OM     OM1 3340   1.935   8.815   6.463
 3341OM     OM1 3341   1.807   9.046   6.476
 3342OM     OM1 3342   1.702   8.833   6.586
 3343OM     OM1 3343   1.711   8.841   6.331
 3344OM     OM1 3344   3.507   1.148   2.801
 3345OM     OM1 3345   3.677   1.193   2.605
 3346OM     OM1 3346   3.478   1.039   2.564
 3347OM     OM1 3347   3.435   1.291   2.596
 3348OM     OM1 3348   6.853   0.818   8.240
 3349OM     OM1 3349   6.703   0.598   8.264
 3350OM     OM1 3350   6.759   0.726   8.027
 3351OM     OM1 3351   4.824   8.552   1.085
 3352OM     OM1 3352   5.013   8.554   1.259
 3353OM     OM1 3353   5.083   8.475   1.019
 3354OM     OM1 3354   4.512   9.506   9.330
 3355OM     OM1 3355   4.266   9.558   9.381
 3356OM     OM1 3356   4.343   9.306   9.315
 3357OM     OM1 3357   5.550   0.857   9.505
 3358OM     OM1 3358   5.590   1.211   9.180
 3359OM     OM1 3359   5.486   1.026   9.324
 3360OM     OM1 3360   5.647   0.960   9.122
 3361OM     OM1 3361   5.361   8.911   9.236
 3362OM     OM1 3362   5.404   8.667   9.148
 3363OM     OM1 3363   5.534   8.859   9.045
 3364OM     OM1 3364   2.190   8.553   4.649
 3365OM     OM1 3365   2.152   8.286   4.655
 3366OM     OM1 3366   2.060   8.626   4.337
 3367OM     OM1 3367   2.158   8.412   4.429
 3368OM     OM1 3368   5.340   0.926   1.386
 3369OM     OM1 3369   5.454   0.713   1.481
 3370OM     OM1 3370   5.255   0.806   1.605
 3371OM     OM1 3371   0.119   8.269   6.876
 3372OM     OM1 3372   9.411   1.199   8.892
 3373OM     OM1 3373   9.409   0.946   8.966
 3374OM     OM1 3374   9.316   1.025   8.728
 3375OM     OM1 3375   9.190   1.087   8.952
 3376OM     OM1 3376   3.965   1.194   1.811
 3377OM     OM1 3377   4.057   1.014   1.994
 3378OM     OM1 3378   4.216   1.175   1.876
 3379OM     OM1 3379   8.676   1.318   3.653
 3380OM     OM1 3380   8.902   1.426   3.659
 3381OM     OM1 3381   3.685   0.412   9.303
 3382OM     OM1 3382   3.676   0.452   9.566
 3383OM     OM1 3383   3.688   0.205   9.465
 3384OM     OM1 3384   3.891   0.363   9.482
 3385OM     OM1 3385   2.155   8.446   1.752
 3386OM     OM1 3386   2.374   8.543   1.850
 3387OM     OM1 3387   2.372   8.423   1.611
 3388OM     OM1 3388   2.507   9.030   1.162
 3389OM     OM1 3389   2.474   8.821   1.314
 3390OM     OM1 3390   2.692   8.858   1.170
 3391OM     OM1 3391   2.633   9.007   1.391
 3392OM     OM1 3392   8.704   9.596   5.727
 3393OM     OM1 3393   8.827   9.376   5.689
 3394OM     OM1 3394   8.940   9.602   5.605
 3395OM     OM1 3395   8.729   9.499   5.484
 3396OM     OM1 3396   0.713   8.703   6.622
 3397OM     OM1 3397   0.924   8.739   6.761
 3398OM     OM1 3398   0.681   8.768   6.871
 3399OM     OM1 3399   8.153   8.826   5.571
 3400OM     OM1 3400   7.906   8.788   5.644
 3401OM     OM1 3401   8.117   8.701   5.794
 3402OM     OM1 3402   2.097   9.545   2.312
 3403OM     OM1 3403   2.262   9.539   2.519
 3404OM     OM1 3404   2.173   0.163   2.414
 3405OM     OM1 3405   2.012   9.604   2.548
 3406OM     OM1 3406   1.794   1.002   0.578
 3407OM     OM1 3407   6.030   0.894   7.507
 3408OM     OM1 3408   6.015   1.032   7.731
 3409OM     OM1 3409   6.095   1.112   7.970
 3410OM     OM1 3410   5.655   0.503   5.289
 3411OM     OM1 3411   5.430   0.638   5.298
 3412OM     OM1 3412   5.658   0.759   5.336
 3413OM     OM1 3413   5.591   0.672   5.096
 3414OM     OM1 3414   1.023   0.632   7.434
 3415OM     OM1 3415   0.777   0.542   7.388
 3416OM     OM1 3416   1.287   0.612   7.386
 3417OM     OM1 3417   0.154   8.386   1.491
 3418OM     OM1 3418   0.364   8.242   1.495
 3419OM     OM1 3419   0.289   8.351   1.270
 3420OM     OM1 3420   7.898   9.099   1.904
 3421OM     OM1 3421   7.798   8.884   2.028
 3422OM     OM1 3422   8.055   8.900   1.964
 3423OM     OM1 3423   7.872   8.870   1.780
 3424OM     OM1 3424   5.323   1.205   3.610
 3425OM     OM1 3425   5.189   1.333   3.424
 3426OM     OM1 3426   7.177   0.392   8.702
 3427OM     OM1 3427   7.215   0.145   8.768
 3428OM     OM1 3428   7.358   0.250   8.580
 3429OM     OM1 3429   7.402   0.310   8.832
 3430OM     OM1 3430   1.048   8.363   2.687
 3431OM     OM1 3431   0.825   8.375   2.543
 3432OM     OM1 3432   6.491   0.090   8.255
 3433OM     OM1 3433   6.428   0.133   7.995
 3434OM     OM1 3434   0.930   1.192   5.435
 3435OM     OM1 3435   7.317   0.258   7.753
 3436OM     OM1 3436   7.195   0.074   7.891
 3437OM     OM1 3437   7.310   0.022   7.653
 3438OM     OM1 3438   7.455   0.064   7.866
 3439OM     OM1 3439   8.694   9.170   5.590
 3440OM     OM1 3440   8.566   9.132   5.358
 3441OM     OM1 3441   8.581   8.935   5.524
 3442OM     OM1 3442   8.432   9.138   5.575
 3443OM     OM1 3443   9.253   1.136   8.496
 3444OM     OM1 3444   7.368   0.388   0.285
 3445OM     OM1 3445   7.334   0.639   0.353
 3446OM     OM1 3446   7.568   0.534   0.382
 3447OM     OM1 3447   7.363   0.459   0.536
 3448OM     OM1 3448   1.688   1.047   0.060
 3449OM     OM1 3449   1.953   0.991   0.037
 3450OM     OM1 3450   1.780   0.849   0.182
 3451OM     OM1 3451   1.775   0.842   9.526
 3452OM     OM1 3452   6.764   8.794   6.894
 3453OM     OM1 3453   6.691   8.600   6.736
 3454OM     OM1 3454   4.742   0.508   1.319
 3455OM     OM1 3455   4.930   0.412   1.153
 3456OM     OM1 3456   4.786   0.639   1.099
 3457OM     OM1 3457   9.175   0.323   8.823
 3458OM     OM1 3458   9.546   0.158   8.573
 3459OM     OM1 3459   9.300   0.528   8.734
 3460OM     OM1 3460   3.045   8.553   8.973
 3461OM     OM1 3461   2.927   8.568   9.190
 3462OM     OM1 3462   3.164   8.669   9.183
 3463OM     OM1 3463   3.155   8.418   9.173
 3464OM     OM1 3464   3.692   0.828   0.630
 3465OM     OM1 3465   3.659   0.660   0.427
 3466OM     OM1 3466   3.853   0.626   0.616
 3467OM     OM1 3467   3.609   0.574   0.661
 3468OM     OM1 3468   4.320   8.581   4.451
 3469OM     OM1 3469   4.483   8.688   4.622
 3470OM     OM1 3470   4.283   8.549   4.711
 3471OM     OM1 3471   5.439   0.224   0.647
 3472OM     OM1 3472   5.487   0.171   0.898
 3473OM     OM1 3473   5.556   9.605   0.731
 3474OM     OM1 3474   5.295   0.037   0.759
 3475OM     OM1 3475   0.992   1.033   5.637
 3476OM     OM1 3476   0.789   1.189   5.670
 3477OM     OM1 3477   4.621   8.502   2.904
 3478OM     OM1 3478   4.824   8.351   2.831
 3479OM     OM1 3479   4.718   8.307   3.059
 3480OM     OM1 3480   4.520   8.983   6.988
 3481OM     OM1 3481   4.426   9.193   6.861
 3482OM     OM1 3482   4.589   9.224   7.057
 3483OM     OM1 3483   4.681   9.117   6.832
 3484OM     OM1 3484   3.507   8.725   9.505
 3485OM     OM1 3485   3.471   8.684   0.164
 3486OM     OM1 3486   2.650   8.480   4.884
 3487OM     OM1 3487   2.449   8.525   5.035
 3488OM     OM1 3488   2.672   8.475   5.156
 3489OM     OM1 3489   2.782   8.552   3.833
 3490OM     OM1 3490   2.689   8.378   3.655
 3491OM     OM1 3491   2.531   8.514   3.799
 3492OM     OM1 3492   0.433   1.361   3.240
 3493OM     OM1 3493   0.535   1.280   3.479
 3494OM     OM1 3494   2.929   1.205   4.274
 3495OM     OM1 3495   3.672   0.660   6.381
 3496OM     OM1 3496   3.663   0.670   6.132
 3497OM     OM1 3497   3.493   0.823   6.258
 3498OM     OM1 3498   3.466   0.561   6.255
 3499OM     OM1 3499   7.591   1.079   1.873
 3500OM     OM1 3500   7.578   1.158   1.620
 3501OM     OM1 3501   7.506   0.927   1.677
 3502OM     OM1 3502   7.767   0.998   1.708
 3503OM     OM1 3503   8.274   1.028   7.996
 3504OM     OM1 3504   8.155   1.145   7.789
 3505OM     OM1 3505   8.257   0.906   7.773
 3506OM     OM1 3506   5.438   9.591   2.234
 3507OM     OM1 3507   5.263   0.044   2.052
 3508OM     OM1 3508   5.196   9.525   2.277
 3509OM     OM1 3509   5.262   0.186   2.261
 3510OM     OM1 3510   7.796   0.508   2.884
 3511OM     OM1 3511   7.568   0.551   2.768
 3512OM     OM1 3512   7.623   0.305   2.851
 3513OM     OM1 3513   7.574   0.490   3.021
 3514OM     OM1 3514   1.372   0.646   0.391
 3515OM     OM1 3515   1.365   0.555   0.142
 3516OM     OM1 3516   7.641   9.169   2.825
 3517OM     OM1 3517   7.744   9.412   2.855
 3518OM     OM1 3518   0.182   8.400   8.615
 3519OM     OM1 3519   0.108   8.382   8.864
 3520OM     OM1 3520   9.553   8.495   8.692
 3521OM     OM1 3521   2.453   8.552   7.978
 3522OM     OM1 3522   2.303   8.616   7.782
 3523OM     OM1 3523   2.558   8.692   7.781
 3524OM     OM1 3524   2.499   8.446   7.737
 3525OM     OM1 3525   4.580   1.244   2.679
 3526OM     OM1 3526   4.741   1.104   2.522
 3527OM     OM1 3527   4.565   1.260   2.420
 3528OM     OM1 3528   8.112   8.957   1.336
 3529OM     OM1 3529   8.344   8.872   1.290
 3530OM     OM1 3530   8.141   8.784   1.141
 3531OM     OM1 3531   7.891   8.704   0.536
 3532OM     OM1 3532   8.076   8.819   0.406
 3533OM     OM1 3533   8.114   8.804   0.655
 3534OM     OM1 3534   7.927   8.957   0.591
 3535OM     OM1 3535   3.237   8.507   0.546
 3536OM     OM1 3536   3.419   8.519   0.352
 3537OM     OM1 3537   3.262   8.309   0.378
 3538OM     OM1 3538   2.252   0.905   0.993
 3539OM     OM1 3539   2.355   1.082   0.824
 3540OM     OM1 3540   2.195   1.162   1.016
 3541OM     OM1 3541   2.426   1.078   1.081
 3542OM     OM1 3542   7.970   1.115   0.131
 3543OM     OM1 3543   7.719   1.173   0.113
 3544OM     OM1 3544   7.814   1.058   0.335
 3545OM     OM1 3545   7.774   0.925   0.118
 3546OM     OM1 3546   6.874   9.535   3.780
 3547OM     OM1 3547   6.692   9.555   3.967
 3548OM     OM1 3548   6.925   0.079   3.995
 3549OM     OM1 3549   8.583   1.267   9.127
 3550OM     OM1 3550   8.475   1.048   9.154
 3551OM     OM1 3551   8.615   1.112   9.350
 3552OM     OM1 3552   8.755   1.058   9.150
 3553OM     OM1 3553   2.010   9.596   4.147
 3554OM     OM1 3554   1.998   9.376   4.016
 3555OM     OM1 3555   0.770   0.284   5.998
 3556OM     OM1 3556   0.961   0.308   5.807
 3557OM     OM1 3557   0.964   0.117   5.988
 3558OM     OM1 3558   0.787   0.121   5.795
 3559OM     OM1 3559   3.914   1.333   2.765
 3560OM     OM1 3560   3.929   1.318   3.021
 3561OM     OM1 3561   3.697   1.282   2.917
 3562OM     OM1 3562   4.230   9.506   4.324
 3563OM     OM1 3563   4.184   0.014   3.976
 3564OM     OM1 3564   4.207   0.130   4.196
 3565OM     OM1 3565   4.440   0.068   4.303
 3566OM     OM1 3566   6.175   8.459   7.541
 3567OM     OM1 3567   6.042   8.352   7.743
 3568OM     OM1 3568   6.048   8.237   7.507
 3569OM     OM1 3569   7.528   8.259   6.498
 3570OM     OM1 3570   7.634   8.258   6.747
 3571OM     OM1 3571   6.176   8.781   9.498
 3572OM     OM1 3572   5.951   8.659   9.413
 3573OM     OM1 3573   5.950   8.901   9.524
 3574OM     OM1 3574   6.041   8.873   9.293
 3575OM     OM1 3575   4.983   0.290   0.938
 3576OM     OM1 3576   5.127   0.231   1.145
 3577OM     OM1 3577   4.434   8.796   7.156
 3578OM     OM1 3578   4.771   9.003   7.403
 3579OM     OM1 3579   4.563   9.120   7.289
 3580OM     OM1 3580   9.191   9.007   8.805
 3581OM     OM1 3581   9.222   8.866   8.587
 3582OM     OM1 3582   9.309   9.109   8.583
 3583OM     OM1 3583   7.144   0.228   8.099
 3584OM     OM1 3584   6.710   0.412   5.769
 3585OM     OM1 3585   6.786   0.659   5.753
 3586OM     OM1 3586   6.961   0.464   5.745
 3587OM     OM1 3587   5.683   1.029   1.072
 3588OM     OM1 3588   5.920   1.111   1.063
 3589OM     OM1 3589   5.946   1.001   0.821
 3590OM     OM1 3590   6.096   0.913   1.011
 3591OM     OM1 3591   4.277   0.746   4.356
 3592OM     OM1 3592   4.091   0.815   4.518
 3593OM     OM1 3593   4.024   0.690   4.299
 3594OM     OM1 3594   4.140   0.560   4.496
 3595OM     OM1 3595   2.484   1.124   5.449
 3596OM     OM1 3596   2.742   1.093   5.424
 3597OM     OM1 3597   2.577   1.028   5.227
 3598OM     OM1 3598   8.707   9.419   2.280
 3599OM     OM1 3599   8.952   9.550   2.282
 3600OM     OM1 3600   8.743   0.042   2.163
 3601OM     OM1 3601   8.743   8.277   9.577
 3602OM     OM1 3602   6.061   1.207   3.420
 3603OM     OM1 3603   5.935   1.253   3.186
 3604OM     OM1 3604   6.182   1.235   3.197
 3605OM     OM1 3605   8.800   0.088   8.594
 3606OM     OM1 3606   8.562   0.197   8.556
 3607OM     OM1 3607   8.659   0.067   8.362
 3608OM     OM1 3608   8.596   9.544   8.571
 3609OM     OM1 3609   7.204   9.244   6.775
 3610OM     OM1 3610   7.034   9.421   6.684
 3611OM     OM1 3611   7.155   9.454   6.922
 3612OM     OM1 3612   7.289   9.479   6.701
 3613OM     OM1 3613   3.795   0.056   7.345
 3614OM     OM1 3614   3.649   9.592   7.545
 3615OM     OM1 3615   3.633   0.234   7.448
 3616OM     OM1 3616   3.538   0.030   7.317
 3617OM     OM1 3617   8.641   0.316   3.241
 3618OM     OM1 3618   8.164   0.198   3.225
 3619OM     OM1 3619   8.373   0.023   3.237
 3620OM     OM1 3620   7.672   8.657   4.451
 3621OM     OM1 3621   7.546   8.884   4.525
 3622OM     OM1 3622   7.576   8.818   4.277
 3623OM     OM1 3623   3.726   1.076   4.475
 3624OM     OM1 3624   3.468   1.030   4.525
 3625OM     OM1 3625   3.228   1.135   4.492
 3626OM     OM1 3626   3.654   1.045   4.714
 3627OM     OM1 3627   2.893   8.319   8.233
 3628OM     OM1 3628   2.690   8.411   8.597
 3629OM     OM1 3629   5.328   0.077   3.403
 3630OM     OM1 3630   5.337   0.107   3.150
 3631OM     OM1 3631   5.463   9.583   3.597
 3632OM     OM1 3632   0.230   8.525   5.480
 3633OM     OM1 3633   0.189   8.412   5.259
 3634OM     OM1 3634   0.249   8.676   5.260
 3635OM     OM1 3635   0.024   8.276   5.398
 3636OM     OM1 3636   0.315   0.301   0.356
 3637OM     OM1 3637   0.461   0.432   0.534
 3638OM     OM1 3638   9.325   0.741   4.412
 3639OM     OM1 3639   9.580   0.796   4.408
 3640OM     OM1 3640   9.437   0.856   4.206
 3641OM     OM1 3641   9.481   0.604   4.251
 3642OM     OM1 3642   0.367   1.195   1.396
 3643OM     OM1 3643   0.576   1.191   1.232
 3644OM     OM1 3644   7.654   1.305   3.360
 3645OM     OM1 3645   7.636   1.422   3.604
 3646OM     OM1 3646   4.928   0.012   4.236
 3647OM     OM1 3647   4.842   0.240   4.158
 3648OM     OM1 3648   4.703   0.103   4.339
 3649OM     OM1 3649   2.746   9.582   6.360
 3650OM     OM1 3650   2.794   9.421   6.148
 3651OM     OM1 3651   4.651   0.222   7.011
 3652OM     OM1 3652   4.607   0.475   7.007
 3653OM     OM1 3653   4.415   0.322   6.933
 3654OM     OM1 3654   6.001   9.108   7.365
 3655OM     OM1 3655   5.828   9.453   7.693
 3656OM     OM1 3656   5.935   9.004   7.592
 3657OM     OM1 3657   5.869   9.244   7.538
 3658OM     OM1 3658   7.127   9.420   4.451
 3659OM     OM1 3659   7.165   9.172   4.373
 3660OM     OM1 3660   7.309   9.352   4.273
 3661OM     OM1 3661   7.324   9.058   3.971
 3662OM     OM1 3662   7.426   8.835   4.071
 3663OM     OM1 3663   7.286   8.996   4.223
 3664OM     OM1 3664   3.515   9.220   7.306
 3665OM     OM1 3665   3.376   9.434   7.267
 3666OM     OM1 3666   3.253   9.222   7.358
 3667OM     OM1 3667   3.350   9.231   7.106
 3668OM     OM1 3668   9.306   1.020   1.015
 3669OM     OM1 3669   9.346   0.896   1.235
 3670OM     OM1 3670   9.132   0.838   1.107
 3671OM     OM1 3671   9.152   1.063   1.233
 3672OM     OM1 3672   2.693   0.482   4.324
 3673OM     OM1 3673   2.596   0.337   4.128
 3674OM     OM1 3674   2.694   0.575   4.078
 3675OM     OM1 3675   2.845   0.363   4.155
 3676OM     OM1 3676   7.559   1.342   9.266
 3677OM     OM1 3677   7.583   1.304   9.003
 3678OM     OM1 3678   8.179   8.569   1.808
 3679OM     OM1 3679   8.347   8.493   1.983
 3680OM     OM1 3680   8.171   8.678   2.044
 3681OM     OM1 3681   3.411   8.940   1.369
 3682OM     OM1 3682   3.368   9.194   1.325
 3683OM     OM1 3683   8.911   9.127   0.934
 3684OM     OM1 3684   8.666   9.236   0.864
 3685OM     OM1 3685   8.720   9.156   1.101
 3686OM     OM1 3686   8.434   1.159   2.318
 3687OM     OM1 3687   8.417   0.896   2.285
 3688OM     OM1 3688   2.577   8.687   1.909
 3689OM     OM1 3689   2.728   8.870   1.803
 3690OM     OM1 3690   2.744   8.630   1.706
 3691OM     OM1 3691   6.406   0.347   4.490
 3692OM     OM1 3692   6.625   0.389   4.633
 3693OM     OM1 3693   6.635   0.236   4.419
 3694OM     OM1 3694   9.546   0.006   1.582
 3695OM     OM1 3695   0.003   0.248   1.492
 3696OM     OM1 3696   0.070   0.164   1.728
 3697OM     OM1 3697   9.423   0.216   1.687
 3698OM     OM1 3698   9.386   0.686   5.642
 3699OM     OM1 3699   9.451   0.449   5.543
 3700OM     OM1 3700   9.582   0.538   5.743
 3701OM     OM1 3701   9.321   0.479   5.766
 3702OM     OM1 3702   4.958   8.971   6.414
 3703OM     OM1 3703   4.843   9.116   6.620
 3704OM     OM1 3704   0.242   9.370   4.217
 3705OM     OM1 3705   0.480   9.310   4.102
 3706OM     OM1 3706   0.275   9.386   3.955
 3707OM     OM1 3707   0.405   9.548   4.122
 3708OM     OM1 3708   8.748   0.711   5.770
 3709OM     OM1 3709   8.671   0.804   5.551
 3710OM     OM1 3710   8.642   1.049   5.626
 3711OM     OM1 3711   8.482   0.929   5.434
 3712OM     OM1 3712   2.482   0.768   0.247
 3713OM     OM1 3713   2.248   0.674   0.298
 3714OM     OM1 3714   2.553   0.975   0.105
 3715OM     OM1 3715   2.405   0.526   0.163
 3716OM     OM1 3716   1.717   0.810   2.208
 3717OM     OM1 3717   1.616   0.933   1.997
 3718OM     OM1 3718   1.612   0.680   2.007
 3719OM     OM1 3719   1.459   0.824   2.176
 3720OM     OM1 3720   5.381   9.602   8.268
 3721OM     OM1 3721   5.596   0.092   8.380
 3722OM     OM1 3722   5.497   0.226   8.185
 3723OM     OM1 3723   5.850   9.488   4.032
 3724OM     OM1 3724   5.712   9.544   4.256
 3725OM     OM1 3725   5.971   9.560   4.241
 3726OM     OM1 3726   0.403   0.951   2.787
 3727OM     OM1 3727   0.312   1.174   2.699
 3728OM     OM1 3728   6.478   9.586   6.311
 3729OM     OM1 3729   6.544   9.519   6.566
 3730OM     OM1 3730   6.497   0.158   6.125
 3731OM     OM1 3731   6.561   9.519   6.080
 3732OM     OM1 3732   6.484   0.948   1.483
 3733OM     OM1 3733   6.547   0.984   1.737
 3734OM     OM1 3734   6.323   0.875   1.669
 3735OM     OM1 3735   6.371   1.138   1.639
 3736OM     OM1 3736   3.186   8.255   6.964
 3737OM     OM1 3737   3.280   8.442   6.827
 3738OM     OM1 3738   5.378   1.274   8.966
 3739OM     OM1 3739   5.403   1.055   9.078
 3740OM     OM1 3740   5.146   1.170   8.966
 3741OM     OM1 3741   8.070   0.622   4.402
 3742OM     OM1 3742   8.218   0.524   4.213
 3743OM     OM1 3743   8.228   0.427   4.453
 3744OM     OM1 3744   8.020   0.380   4.306
 3745OM     OM1 3745   6.441   8.954   4.054
 3746OM     OM1 3746   6.505   8.702   4.032
 3747OM     OM1 3747   6.562   8.882   3.846
 3748OM     OM1 3748   6.315   8.807   3.875
 3749OM     OM1 3749   4.666   8.625   2.688
 3750OM     OM1 3750   4.520   8.753   2.888
 3751OM     OM1 3751   5.180   8.457   4.093
 3752OM     OM1 3752   4.923   8.451   4.126
 3753OM     OM1 3753   5.042   8.677   4.124
 3754OM     OM1 3754   5.085   8.516   4.330
 3755OM     OM1 3755   9.381   0.435   2.641
 3756OM     OM1 3756   9.247   0.363   2.418
 3757OM     OM1 3757   9.211   0.599   2.521
 3758OM     OM1 3758   9.438   0.551   2.419
 3759OM     OM1 3759   1.359   0.372   9.198
 3760OM     OM1 3760   1.350   0.211   8.864
 3761OM     OM1 3761   1.403   9.604   8.996
 3762OM     OM1 3762   8.998   0.831   1.642
 3763OM     OM1 3763   8.998   0.932   1.401
 3764OM     OM1 3764   2.654   9.547   3.690
 3765OM     OM1 3765   2.732   0.180   3.617
 3766OM     OM1 3766   4.017   8.806   3.842
 3767OM     OM1 3767   4.203   8.876   4.017
 3768OM     OM1 3768   4.263   8.813   3.764
 3769OM     OM1 3769   4.184   8.634   3.942
 3770OM     OM1 3770   7.345   9.154   5.705
 3771OM     OM1 3771   2.109   1.297   8.040
 3772OM     OM1 3772   1.865   1.232   8.104
 3773OM     OM1 3773   9.175   1.186   6.865
 3774OM     OM1 3774   9.347   0.996   6.878
 3775OM     OM1 3775   9.339   1.140   6.659
 3776OM     OM1 3776   7.322   8.358   5.789
 3777OM     OM1 3777   7.447   8.567   5.692
 3778OM     OM1 3778   7.463   8.531   5.947
 3779OM     OM1 3779   7.590   8.379   5.786
 3780OM     OM1 3780   8.554   0.395   5.989
 3781OM     OM1 3781   8.563   0.148   5.882
 3782OM     OM1 3782   8.604   0.357   5.747
 3783OM     OM1 3783   8.360   0.330   5.862
 3784OM     OM1 3784   5.031   0.952   8.772
 3785OM     OM1 3785   5.021   0.704   8.838
 3786OM     OM1 3786   4.928   0.890   9.000
 3787OM     OM1 3787   6.952   0.585   7.277
 3788OM     OM1 3788   6.702   0.544   7.231
 3789OM     OM1 3789   6.785   0.772   7.347
 3790OM     OM1 3790   2.344   0.328   9.335
 3791OM     OM1 3791   2.261   0.433   9.564
 3792OM     OM1 3792   2.110   0.289   9.424
 3793OM     OM1 3793   2.915   8.795   8.316
 3794OM     OM1 3794   2.682   8.675   8.316
 3795OM     OM1 3795   2.775   8.782   8.103
 3796OM     OM1 3796   2.701   8.929   8.334
 3797OM     OM1 3797   2.625   0.411   6.555
 3798OM     OM1 3798   2.824   0.390   6.391
 3799OM     OM1 3799   2.766   0.178   6.528
 3800OM     OM1 3800   2.606   0.258   6.343
 3801OM     OM1 3801   1.738   0.671   4.324
 3802OM     OM1 3802   1.496   0.759   4.277
 3803OM     OM1 3803   1.569   0.674   4.517
 3804OM     OM1 3804   1.662   0.894   4.422
 3805OM     OM1 3805   6.780   0.542   7.474
 3806OM     OM1 3806   6.490   0.660   7.316
 3807OM     OM1 3807   6.459   0.505   7.112
 3808OM     OM1 3808   9.323   8.987   1.561
 3809OM     OM1 3809   9.215   8.964   1.804
 3810OM     OM1 3810   9.478   8.971   1.764
 3811OM     OM1 3811   9.326   9.183   1.730
 3812OM     OM1 3812   1.189   9.198   1.890
 3813OM     OM1 3813   1.043   9.487   1.595
 3814OM     OM1 3814   1.303   9.466   1.645
 3815OM     OM1 3815   1.140   9.447   1.839
 3816OM     OM1 3816   4.692   8.963   5.773
 3817OM     OM1 3817   4.472   9.077   5.718
 3818OM     OM1 3818   4.659   9.218   5.834
 3819OM     OM1 3819   7.875   9.526   1.574
 3820OM     OM1 3820   7.897   9.332   1.764
 3821OM     OM1 3821   7.796   9.282   1.539
 3822OM     OM1 3822   7.665   9.430   1.715
 3823OM     OM1 3823   9.344   0.813   0.776
 3824OM     OM1 3824   9.439   0.581   0.819
 3825OM     OM1 3825   9.182   0.604   0.762
 3826OM     OM1 3826   1.507   0.398   9.592
 3827OM     OM1 3827   1.703   0.380   9.424
 3828OM     OM1 3828   1.717   0.251   0.048
 3829OM     OM1 3829   7.395   0.311   3.095
 3830OM     OM1 3830   7.466   0.066   3.099
 3831OM     OM1 3831   7.222   0.102   3.042
 3832OM     OM1 3832   8.250   8.362   7.981
 3833OM     OM1 3833   8.232   8.726   8.104
 3834OM     OM1 3834   8.289   8.341   7.729
 3835OM     OM1 3835   8.313   8.861   1.926
 3836OM     OM1 3836   8.494   8.883   1.724
 3837OM     OM1 3837   8.341   9.075   1.787
 3838OM     OM1 3838   6.751   0.589   9.564
 3839OM     OM1 3839   7.010   0.600   9.596
 3840OM     OM1 3840   6.883   0.366   9.590
 3841OM     OM1 3841   6.911   0.496   9.377
 3842OM     OM1 3842   9.167   8.994   9.222
 3843OM     OM1 3843   9.271   8.810   9.084
 3844OM     OM1 3844   9.010   8.804   9.125
 3845OM     OM1 3845   0.822   8.295   8.141
 3846OM     OM1 3846   0.803   8.518   8.017
 3847OM     OM1 3847   0.618   8.443   8.214
 3848OM     OM1 3848   0.856   8.526   8.259
 3849OM     OM1 3849   1.203   9.488   6.617
 3850OM     OM1 3850   0.976   9.385   6.555
 3851OM     OM1 3851   1.031   0.014   6.467
 3852OM     OM1 3852   0.970   0.818   3.420
 3853OM     OM1 3853   1.137   0.636   3.474
 3854OM     OM1 3854   1.197   0.880   3.544
 3855OM     OM1 3855   7.895   0.202   3.822
 3856OM     OM1 3856   7.918   0.337   3.599
 3857OM     OM1 3857   8.060   0.406   3.803
 3858OM     OM1 3858   8.106   0.176   3.670
 3859OM     OM1 3859   6.316   9.478   4.850
 3860OM     OM1 3860   6.146   0.065   4.787
 3861OM     OM1 3861   6.104   9.427   4.719
 3862OM     OM1 3862   6.079   9.494   4.970
 3863OM     OM1 3863   2.352   0.084   8.196
 3864OM     OM1 3864   2.141   0.089   8.345
 3865OM     OM1 3865   2.254   0.315   8.256
 3866OM     OM1 3866   2.369   0.173   8.437
 3867OM     OM1 3867   2.555   0.388   6.797
 3868OM     OM1 3868   2.351   0.250   6.873
 3869OM     OM1 3869   4.292   9.375   3.939
 3870OM     OM1 3870   6.634   0.441   7.682
 3871OM     OM1 3871   6.780   0.288   7.533
 3872OM     OM1 3872   6.886   0.449   7.691
 3873OM     OM1 3873   5.069   9.519   0.834
 3874OM     OM1 3874   4.811   9.436   0.819
 3875OM     OM1 3875   4.957   9.404   1.025
 3876OM     OM1 3876   4.877   0.051   0.940
 3877OM     OM1 3877   9.415   8.427   8.482
 3878OM     OM1 3878   9.175   8.364   8.384
 3879OM     OM1 3879   7.694   1.191   4.636
 3880OM     OM1 3880   7.461   1.242   4.739
 3881OM     OM1 3881   7.645   1.144   4.895
 3882OM     OM1 3882   5.631   8.686   0.052
 3883OM     OM1 3883   5.450   8.590   9.489
 3884OM     OM1 3884   5.718   8.545   9.456
 3885OM     OM1 3885   5.575   8.430   0.036
 3886OM     OM1 3886   7.197   9.216   3.808
 3887OM     OM1 3887   6.973   9.094   3.800
 3888OM     OM1 3888   6.999   9.326   3.676
 3889OM     OM1 3889   4.444   0.097   3.424
 3890OM     OM1 3890   4.506   9.454   3.423
 3891OM     OM1 3891   4.316   9.529   3.253
 3892OM     OM1 3892   5.079   0.822   7.861
 3893OM     OM1 3893   4.971   1.013   8.016
 3894OM     OM1 3894   4.819   0.837   7.895
 3895OM     OM1 3895   4.728   9.119   9.359
 3896OM     OM1 3896   4.941   9.241   9.264
 3897OM     OM1 3897   4.725   9.373   9.304
 3898OM     OM1 3898   4.742   9.210   9.101
 3899OM     OM1 3899   2.266   1.093   8.550
 3900OM     OM1 3900   2.404   0.878   8.489
 3901OM     OM1 3901   2.429   1.084   8.347
 3902OM     OM1 3902   3.331   1.053   8.165
 3903OM     OM1 3903   3.530   0.922   8.250
 3904OM     OM1 3904   3.538   1.190   8.219
 3905OM     OM1 3905   3.546   1.031   8.012
 3906OM     OM1 3906   2.718   0.537   5.231
 3907OM     OM1 3907   2.878   0.424   5.400
 3908OM     OM1 3908   2.944   0.648   5.281
 3909OM     OM1 3909   2.767   0.638   5.476
 3910OM     OM1 3910   8.803   0.293   2.138
 3911OM     OM1 3911   8.649   0.204   2.337
 3912OM     OM1 3912   8.553   0.201   2.093
 3913OM     OM1 3913   5.137   8.707   4.495
 3914OM     OM1 3914   5.089   8.476   4.597
 3915OM     OM1 3915   8.431   8.969   4.910
 3916OM     OM1 3916   8.270   8.848   5.078
 3917OM     OM1 3917   8.490   8.963   5.165
 3918OM     OM1 3918   8.505   8.745   5.021
 3919OM     OM1 3919   5.220   0.967   0.223
 3920OM     OM1 3920   5.230   0.764   0.385
 3921OM     OM1 3921   4.979   0.732   0.361
 3922OM     OM1 3922   3.372   1.340   6.915
 3923OM     OM1 3923   3.545   1.186   6.806
 3924OM     OM1 3924   0.072   9.229   3.903
 3925OM     OM1 3925   0.298   9.133   3.916
 3926OM     OM1 3926   0.250   9.273   3.705
 3927OM     OM1 3927   2.707   8.463   2.448
 3928OM     OM1 3928   2.585   8.606   2.617
 3929OM     OM1 3929   4.084   1.164   8.749
 3930OM     OM1 3930   4.319   1.247   8.642
 3931OM     OM1 3931   8.887   0.085   3.171
 3932OM     OM1 3932   9.050   0.129   2.965
 3933OM     OM1 3933   8.778   0.137   2.947
 3934OM     OM1 3934   8.922   9.521   2.978
 3935OM     OM1 3935   0.573   1.278   3.033
 3936OM     OM1 3936   0.799   1.172   2.984
 3937OM     OM1 3937   3.598   9.515   6.097
 3938OM     OM1 3938   3.680   0.074   5.903
 3939OM     OM1 3939   1.606   1.056   9.166
 3940OM     OM1 3940   1.723   0.869   9.033
 3941OM     OM1 3941   1.476   0.837   9.090
 3942OM     OM1 3942   1.668   0.837   9.282
 3943OM     OM1 3943   1.977   9.003   3.226
 3944OM     OM1 3944   1.788   8.828   3.287
 3945OM     OM1 3945   1.884   8.971   3.468
 3946OM     OM1 3946   5.803   8.488   8.482
 3947OM     OM1 3947   0.342   9.517   3.261
 3948OM     OM1 3948   0.166   0.029   3.109
 3949OM     OM1 3949   0.339   9.474   3.002
 3950OM     OM1 3950   7.784   0.370   5.980
 3951OM     OM1 3951   7.742   0.470   6.214
 3952OM     OM1 3952   7.671   0.610   6.000
 3953OM     OM1 3953   7.920   0.583   6.059
 3954OM     OM1 3954   2.891   1.039   0.229
 3955OM     OM1 3955   2.779   0.923   0.011
 3956OM     OM1 3956   2.760   1.246   0.286
 3957OM     OM1 3957   2.726   0.855   0.241
 3958OM     OM1 3958   8.882   0.771   1.114
 3959OM     OM1 3959   9.049   0.626   0.977
 3960OM     OM1 3960   2.077   0.325   0.577
 3961OM     OM1 3961   2.038   0.076   0.600
 3962OM     OM1 3962   6.567   0.225   7.082
 3963OM     OM1 3963   6.395   0.051   7.017
 3964OM     OM1 3964   6.382   0.159   7.254
 3965OM     OM1 3965   6.313   0.306   7.052
 3966OM     OM1 3966   5.560   9.401   2.362
 3967OM     OM1 3967   5.691   9.364   2.585
 3968OM     OM1 3968   5.434   9.484   2.572
 3969OM     OM1 3969   5.472   9.240   2.537
 3970OM     OM1 3970   5.446   8.701   2.419
 3971OM     OM1 3971   5.373   8.609   2.173
 3972OM     OM1 3972   5.186   9.012   2.291
 3973OM     OM1 3973   0.481   8.663   6.254
 3974OM     OM1 3974   0.444   8.417   6.182
 3975OM     OM1 3975   0.689   8.538   6.177
 3976OM     OM1 3976   0.592   8.449   6.390
 3977OM     OM1 3977   5.079   9.177   9.472
 3978OM     OM1 3978   5.103   8.988   0.045
 3979OM     OM1 3979   8.346   0.226   8.699
 3980OM     OM1 3980   8.166   0.176   8.511
 3981OM     OM1 3981   8.106   0.127   8.767
 3982OM     OM1 3982   3.530   0.872   7.809
 3983OM     OM1 3983   3.649   1.106   7.786
 3984OM     OM1 3984   3.767   0.916   7.917
 3985OM     OM1 3985   0.407   0.336   5.046
 3986OM     OM1 3986   0.190   0.221   4.941
 3987OM     OM1 3987   0.423   0.129   4.897
 3988OM     OM1 3988   0.336   0.381   4.806
 3989OM     OM1 3989   7.352   9.109   1.958
 3990OM     OM1 3990   7.343   9.303   2.126
 3991OM     OM1 3991   7.147   9.268   1.926
 3992OM     OM1 3992   7.155   9.128   2.137
 3993OM     OM1 3993   4.012   8.450   8.183
 3994OM     OM1 3994   3.872   8.627   8.048
 3995OM     OM1 3995   4.102   8.545   7.960
 3996OM     OM1 3996   4.080   8.704   8.177
 3997OM     OM1 3997   3.999   9.156   2.829
 3998OM     OM1 3998   4.004   8.917   2.905
 3999OM     OM1 3999   3.966   9.075   3.096
 4000OM     OM1 4000   1.270   0.841   4.719
 4001OM     OM1 4001   1.039   0.899   4.812
 4002OM     OM1 4002   1.061   0.682   4.675
 4003OM     OM1 4003   7.505   0.582   4.059
 4004OM     OM1 4004   7.356   0.655   3.854
 4005OM     OM1 4005   7.286   0.694   6.515
 4006OM     OM1 4006   7.051   0.657   6.421
 4007OM     OM1 4007   7.240   0.703   6.251
 4008OM     OM1 4008   7.143   0.890   6.427
 4009OM     OM1 4009   5.089   0.469   9.570
 4010OM     OM1 4010   5.181   0.670   9.424
 4011OM     OM1 4011   5.264   0.409   9.395
 4012OM     OM1 4012   5.236   8.728   1.979
 4013OM     OM1 4013   5.318   8.497   1.942
 4014OM     OM1 4014   2.765   1.232   0.020
 4015OM     OM1 4015   2.844   1.140   9.393
 4016OM     OM1 4016   2.609   1.273   9.418
 4017OM     OM1 4017   1.182   8.454   0.401
 4018OM     OM1 4018   1.350   8.279   0.320
 4019OM     OM1 4019   0.021   0.357   8.428
 4020OM     OM1 4020   0.112   0.489   8.213
 4021OM     OM1 4021   0.018   0.243   8.201
 4022OM     OM1 4022   7.795   1.042   6.058
 4023OM     OM1 4023   7.582   1.176   6.332
 4024OM     OM1 4024   7.575   0.937   6.421
 4025OM     OM1 4025   7.562   0.996   6.151
 4026OM     OM1 4026   7.147   9.201   2.925
 4027OM     OM1 4027   7.170   8.944   2.972
 4028OM     OM1 4028   3.404   1.107   0.894
 4029OM     OM1 4029   3.658   1.178   0.963
 4030OM     OM1 4030   5.526   8.722   5.468
 4031OM     OM1 4031   5.309   8.382   5.237
 4032OM     OM1 4032   5.482   8.247   5.388
 4033OM     OM1 4033   3.285   1.401   9.022
 4034OM     OM1 4034   3.111   1.224   9.077
 4035OM     OM1 4035   2.777   0.156   4.298
 4036OM     OM1 4036   2.964   0.053   4.730
 4037OM     OM1 4037   2.835   9.527   4.388
 4038OM     OM1 4038   2.792   0.130   4.554
 4039OM     OM1 4039   6.088   9.134   5.803
 4040OM     OM1 4040   5.947   9.270   5.633
 4041OM     OM1 4041   0.719   1.234   0.801
 4042OM     OM1 4042   0.509   1.150   0.684
 4043OM     OM1 4043   6.830   9.135   0.555
 4044OM     OM1 4044   6.798   9.065   0.309
 4045OM     OM1 4045   7.037   9.151   0.397
 4046OM     OM1 4046   5.162   0.490   6.574
 4047OM     OM1 4047   5.277   0.272   6.501
 4048OM     OM1 4048   5.189   0.434   6.317
 4049OM     OM1 4049   0.150   1.163   2.162
 4050OM     OM1 4050   0.204   1.285   2.374
 4051OM     OM1 4051   9.582   1.339   2.224
 4052OM     OM1 4052   0.012   1.121   2.384
 4053OM     OM1 4053   2.002   8.651   1.706
 4054OM     OM1 4054   2.002   8.714   1.439
 4055OM     OM1 4055   1.779   8.708   1.580
 4056OM     OM1 4056   5.626   8.714   7.762
 4057OM     OM1 4057   5.703   8.497   7.904
 4058OM     OM1 4058   5.846   8.720   7.899
 4059OM     OM1 4059   3.842   8.618   3.778
 4060OM     OM1 4060   3.759   8.386   3.873
 4061OM     OM1 4061   3.611   8.502   3.705
 4062OM     OM1 4062   8.241   8.836   6.243
 4063OM     OM1 4063   8.056   8.660   6.289
 4064OM     OM1 4064   8.169   8.680   6.050
 4065OM     OM1 4065   8.006   8.862   6.132
 4066OM     OM1 4066   1.044   0.851   9.142
 4067OM     OM1 4067   1.019   0.625   9.000
 4068OM     OM1 4068   0.920   0.972   9.337
 4069OM     OM1 4069   4.639   0.705   7.135
 4070OM     OM1 4070   4.206   9.158   1.808
 4071OM     OM1 4071   3.967   9.102   1.896
 4072OM     OM1 4072   4.159   9.082   2.065
 4073OM     OM1 4073   4.085   9.319   1.971
 4074OM     OM1 4074   8.812   8.714   3.967
 4075OM     OM1 4075   8.846   8.500   3.821
 4076OM     OM1 4076   8.960   8.525   4.057
 4077OM     OM1 4077   4.303   8.650   0.661
 4078OM     OM1 4078   4.494   8.815   0.704
 4079OM     OM1 4079   4.364   8.710   0.917
 4080OM     OM1 4080   4.515   8.563   0.777
 4081OM     OM1 4081   1.708   8.489   9.384
 4082OM     OM1 4082   1.342   8.430   0.103
 4083OM     OM1 4083   1.417   8.669   0.043
 4084OM     OM1 4084   8.616   8.560   4.398
 4085OM     OM1 4085   8.619   8.494   4.657
 4086OM     OM1 4086   8.001   8.544   4.091
 4087OM     OM1 4087   7.911   8.304   4.097
 4088OM     OM1 4088   7.775   8.474   3.971
 4089OM     OM1 4089   5.700   0.943   8.874
 4090OM     OM1 4090   5.609   0.736   8.998
 4091OM     OM1 4091   5.856   0.797   9.027
 4092OM     OM1 4092   3.168   9.242   4.948
 4093OM     OM1 4093   3.339   9.137   4.795
 4094OM     OM1 4094   3.392   9.379   4.895
 4095OM     OM1 4095   3.404   9.164   5.045
 4096OM     OM1 4096   4.872   9.056   1.814
 4097OM     OM1 4097   4.986   8.908   1.618
 4098OM     OM1 4098   4.767   9.057   1.573
 4099OM     OM1 4099   4.759   8.845   1.720
 4100OM     OM1 4100   6.534   0.060   8.870
 4101OM     OM1 4101   6.422   0.289   8.828
 4102OM     OM1 4102   1.787   8.401   0.884
 4103OM     OM1 4103   1.954   8.441   1.092
 4104OM     OM1 4104   6.750   9.199   0.100
 4105OM     OM1 4105   6.620   8.965   0.136
 4106OM     OM1 4106   6.881   8.970   0.089
 4107OM     OM1 4107   6.275   8.482   3.719
 4108OM     OM1 4108   6.390   8.390   3.946
 4109OM     OM1 4109   6.487   8.474   4.159
 4110OM     OM1 4110   6.226   8.460   4.131
 4111OM     OM1 4111   9.180   1.432   4.524
 4112OM     OM1 4112   3.133   9.303   0.679
 4113OM     OM1 4113   3.067   9.374   0.437
 4114OM     OM1 4114   0.732   0.768   0.125
 4115OM     OM1 4115   0.545   0.800   9.543
 4116OM     OM1 4116   0.557   0.967   0.144
 4117OM     OM1 4117   0.483   0.723   0.180
 4118OM     OM1 4118   5.965   8.352   7.285
 4119OM     OM1 4119   5.738   8.421   7.193
 4120OM     OM1 4120   2.572   9.546   1.856
 4121OM     OM1 4121   2.574   9.301   1.943
 4122OM     OM1 4122   2.600   9.490   2.110
 4123OM     OM1 4123   2.364   9.458   1.989
 4124OM     OM1 4124   3.904   0.565   2.416
 4125OM     OM1 4125   3.970   0.538   2.167
 4126OM     OM1 4126   4.101   0.411   2.355
 4127OM     OM1 4127   3.860   0.336   2.270
 4128OM     OM1 4128   1.163   9.324   7.068
 4129OM     OM1 4129   1.078   9.212   6.850
 4130OM     OM1 4130   9.248   9.280   8.035
 4131OM     OM1 4131   9.086   9.472   8.135
 4132OM     OM1 4132   7.073   9.596   0.938
 4133OM     OM1 4133   7.248   0.002   1.120
 4134OM     OM1 4134   7.075   0.195   1.107
 4135OM     OM1 4135   8.616   8.816   4.344
 4136OM     OM1 4136   8.585   9.064   4.416
 4137OM     OM1 4137   8.803   8.992   4.288
 4138OM     OM1 4138   8.947   0.756   0.478
 4139OM     OM1 4139   8.734   0.879   0.504
 4140OM     OM1 4140   8.731   0.612   0.422
 4141OM     OM1 4141   9.122   0.059   0.271
 4142OM     OM1 4142   9.079   0.028   0.520
 4143OM     OM1 4143   9.144   9.426   0.353
 4144OM     OM1 4144   8.908   9.513   0.367
 4145OM     OM1 4145   7.384   8.789   3.014
 4146OM     OM1 4146   7.545   8.699   2.825
 4147OM     OM1 4147   7.576   8.934   2.936
 4148OM     OM1 4148   7.638   8.706   3.062
 4149OM     OM1 4149   8.109   0.990   9.571
 4150OM     OM1 4150   8.175   1.247   0.016
 4151OM     OM1 4151   2.083   0.914   1.402
 4152OM     OM1 4152   1.846   0.812   1.394
 4153OM     OM1 4153   1.896   1.022   1.543
 4154OM     OM1 4154   0.949   0.227   1.150
 4155OM     OM1 4155   1.193   0.247   1.231
 4156OM     OM1 4156   0.987   0.236   1.408
 4157OM     OM1 4157   1.028   0.446   1.256
 4158OM     OM1 4158   8.564   0.611   3.612
 4159OM     OM1 4159   8.599   0.837   3.733
 4160OM     OM1 4160   0.238   0.574   7.777
 4161OM     OM1 4161   0.348   0.643   7.564
 4162OM     OM1 4162   0.420   0.415   7.683
 4163OM     OM1 4163   9.309   0.029   9.300
 4164OM     OM1 4164   9.566   9.570   9.316
 4165OM     OM1 4165   9.428   9.585   9.532
 4166OM     OM1 4166   9.466   0.200   9.385
 4167OM     OM1 4167   7.631   1.243   1.391
 4168OM     OM1 4168   7.873   1.228   1.444
 4169OM     OM1 4169   8.514   9.229   6.523
 4170OM     OM1 4170   8.549   9.469   6.458
 4171OM     OM1 4171   8.366   9.331   6.320
 4172OM     OM1 4172   5.189   1.370   5.536
 4173OM     OM1 4173   2.898   9.287   7.185
 4174OM     OM1 4174   2.824   9.544   7.256
 4175OM     OM1 4175   2.688   9.340   7.325
 4176OM     OM1 4176   6.541   8.789   7.496
 4177OM     OM1 4177   6.656   8.609   7.661
 4178OM     OM1 4178   6.428   8.554   7.530
 4179OM     OM1 4179   7.104   9.150   7.866
 4180OM     OM1 4180   6.847   9.210   7.866
 4181OM     OM1 4181   6.920   8.986   7.953
 4182OM     OM1 4182   4.749   0.976   4.413
 4183OM     OM1 4183   4.490   0.919   4.340
 4184OM     OM1 4184   3.559   1.144   3.316
 4185OM     OM1 4185   3.412   1.350   3.424
 4186OM     OM1 4186   2.563   9.329   7.573
 4187OM     OM1 4187   2.529   9.147   7.398
 4188OM     OM1 4188   2.437   9.386   7.354
 4189OM     OM1 4189   2.293   8.659   4.867
 4190OM     OM1 4190   2.332   8.775   4.646
 4191OM     OM1 4191   9.207   9.482   2.280
 4192OM     OM1 4192   9.144   0.132   2.321
 4193OM     OM1 4193   9.085   9.558   2.502
 4194OM     OM1 4194   7.820   9.046   6.094
 4195OM     OM1 4195   7.765   8.832   6.227
 4196OM     OM1 4196   7.928   9.011   6.330
 4197OM     OM1 4197   5.822   9.245   9.006
 4198OM     OM1 4198   5.893   9.492   9.020
 4199OM     OM1 4199   5.892   9.332   9.241
 4200OM     OM1 4200   5.672   9.419   9.138
 4201OM     OM1 4201   7.202   0.731   5.533
 4202OM     OM1 4202   6.998   0.781   5.688
 4203OM     OM1 4203   7.200   0.925   5.708
 4204OM     OM1 4204   7.230   0.673   5.783
 4205OM     OM1 4205   3.093   8.526   6.006
 4206OM     OM1 4206   3.256   8.420   6.183
 4207OM     OM1 4207   2.998   8.358   6.182
 4208OM     OM1 4208   2.330   8.354   9.263
 4209OM     OM1 4209   2.444   8.213   9.445
 4210OM     OM1 4210   8.033   8.757   9.541
 4211OM     OM1 4211   8.256   8.630   9.504
 4212OM     OM1 4212   8.273   8.876   9.558
 4213OM     OM1 4213   9.566   0.993   7.855
 4214OM     OM1 4214   0.131   1.001   8.046
 4215OM     OM1 4215   0.157   0.822   7.853
 4216OM     OM1 4216   0.215   1.070   7.807
 4217OM     OM1 4217   0.558   9.557   7.319
 4218OM     OM1 4218   0.400   0.081   7.476
 4219OM     OM1 4219   0.649   0.128   7.486
 4220OM     OM1 4220   0.532   0.199   7.261
 4221OM     OM1 4221   0.194   1.233   6.102
 4222OM     OM1 4222   0.330   1.020   6.039
 4223OM     OM1 4223   0.083   1.036   5.964
 4224OM     OM1 4224   0.256   1.190   5.850
 4225OM     OM1 4225   8.973   9.316   1.452
 4226OM     OM1 4226   9.220   9.333   1.548
 4227OM     OM1 4227   9.124   9.519   1.393
 4228OM     OM1 4228   9.167   9.273   1.297
 4229OM     OM1 4229   1.393   8.895   1.002
 4230OM     OM1 4230   1.483   8.719   0.838
 4231OM     OM1 4231   1.413   8.652   1.089
 4232OM     OM1 4232   1.974   9.271   3.574
 4233OM     OM1 4233   2.116   9.405   3.377
 4234OM     OM1 4234   2.226   9.226   3.514
 4235OM     OM1 4235   2.149   9.450   3.633
 4236OM     OM1 4236   1.328   8.355   9.133
 4237OM     OM1 4237   3.428   8.542   5.810
 4238OM     OM1 4238   3.509   8.307   5.783
 4239OM     OM1 4239   3.466   8.406   6.027
 4240OM     OM1 4240   3.677   8.481   5.892
 4241OM     OM1 4241   6.629   1.013   0.740
 4242OM     OM1 4242   6.764   1.097   0.539
 4243OM     OM1 4243   6.540   0.970   0.493
 4244OM     OM1 4244   7.793   8.988   8.703
 4245OM     OM1 4245   7.558   9.035   8.592
 4246OM     OM1 4246   7.581   8.996   8.846
 4247OM     OM1 4247   7.599   8.798   8.687
 4248OM     OM1 4248   7.527   8.691   6.667
 4249OM     OM1 4249   7.698   8.512   6.578
 4250OM     OM1 4250   7.452   8.552   6.470
 4251OM     OM1 4251   7.650   8.704   6.424
 4252OM     OM1 4252   3.337   9.458   4.482
 4253OM     OM1 4253   3.448   9.551   4.706
 4254OM     OM1 4254   3.198   9.555   4.679
 4255OM     OM1 4255   5.176   9.399   1.156
 4256OM     OM1 4256   5.217   9.382   1.413
 4257OM     OM1 4257   5.231   0.013   1.284
 4258OM     OM1 4258   5.411   9.428   1.256
 4259OM     OM1 4259   8.352   0.588   6.324
 4260OM     OM1 4260   8.102   0.639   6.237
 4261OM     OM1 4261   8.153   0.590   6.485
 4262OM     OM1 4262   2.016   0.216   2.826
 4263OM     OM1 4263   2.118   0.427   2.916
 4264OM     OM1 4264   2.082   0.194   3.071
 4265OM     OM1 4265   2.268   0.205   2.901
 4266OM     OM1 4266   3.596   0.477   3.664
 4267OM     OM1 4267   3.677   0.660   3.490
 4268OM     OM1 4268   3.772   0.411   3.489
 4269OM     OM1 4269   3.530   0.465   3.404
 4270OM     OM1 4270   5.021   1.255   8.096
 4271OM     OM1 4271   5.189   1.056   8.138
 4272OM     OM1 4272   6.446   0.611   6.120
 4273OM     OM1 4273   6.597   0.590   6.328
 4274OM     OM1 4274   6.396   0.429   6.304
 4275OM     OM1 4275   6.597   0.398   6.144
 4276OM     OM1 4276   8.439   0.678   2.131
 4277OM     OM1 4277   8.648   0.767   2.246
 4278OM     OM1 4278   0.153   8.408   3.413
 4279OM     OM1 4279   0.045   8.546   3.211
 4280OM     OM1 4280   9.585   8.593   3.459
 4281OM     OM1 4281   9.520   8.361   3.339
 4282OM     OM1 4282   4.172   0.126   5.476
 4283OM     OM1 4283   4.411   0.019   5.426
 4284OM     OM1 4284   0.773   8.926   6.495
 4285OM     OM1 4285   0.574   9.108   6.512
 4286OM     OM1 4286   0.559   8.815   6.435
 4287OM     OM1 4287   6.431   0.824   5.971
 4288OM     OM1 4288   6.220   0.723   6.104
 4289OM     OM1 4289   6.324   0.593   5.899
 4290OM     OM1 4290   3.653   8.657   0.335
 4291OM     OM1 4291   3.891   8.767   0.283
 4292OM     OM1 4292   3.853   8.504   0.338
 4293OM     OM1 4293   3.781   8.610   0.110
 4294OM     OM1 4294   8.061   0.096   1.542
 4295OM     OM1 4295   8.350   9.559   1.683
 4296OM     OM1 4296   8.037   0.204   1.774
 4297OM     OM1 4297   8.898   8.469   3.567
 4298OM     OM1 4298   8.669   8.384   3.664
 4299OM     OM1 4299   4.142   9.478   8.323
 4300OM     OM1 4300   3.978   9.270   8.320
 4301OM     OM1 4301   4.171   9.299   8.146
 4302OM     OM1 4302   6.657   8.624   1.479
 4303OM     OM1 4303   6.425   8.650   1.572
 4304OM     OM1 4304   6.724   8.379   1.524
 4305OM     OM1 4305   1.494   8.939   3.763
 4306OM     OM1 4306   1.556   9.049   3.533
 4307OM     OM1 4307   1.618   8.791   3.592
 4308OM     OM1 4308   1.379   8.856   3.538
 4309OM     OM1 4309   4.605   0.094   0.409
 4310OM     OM1 4310   4.605   9.466   0.506
 4311OM     OM1 4311   4.841   9.587   0.497
 4312OM     OM1 4312   9.049   9.007   4.195
 4313OM     OM1 4313   8.851   8.965   4.035
 4314OM     OM1 4314   3.995   0.256   3.453
 4315OM     OM1 4315   4.237   0.358   3.499
 4316OM     OM1 4316   4.041   0.342   3.681
 4317OM     OM1 4317   4.895   1.039   7.329
 4318OM     OM1 4318   5.103   1.200   7.311
 4319OM     OM1 4319   5.090   0.983   7.160
 4320OM     OM1 4320   5.085   0.792   6.966
 4321OM     OM1 4321   6.536   0.579   5.197
 4322OM     OM1 4322   6.501   0.842   5.203
 4323OM     OM1 4323   6.293   0.679   5.161
 4324OM     OM1 4324   6.486   0.719   4.982
 4325OM     OM1 4325   4.888   8.348   4.525
 4326OM     OM1 4326   4.766   8.355   4.297
 4327OM     OM1 4327   1.949   1.083   4.909
 4328OM     OM1 4328   2.127   0.897   4.949
 4329OM     OM1 4329   2.105   1.105   5.111
 4330OM     OM1 4330   2.209   1.129   4.866
 4331OM     OM1 4331   5.537   8.914   7.257
 4332OM     OM1 4332   5.743   9.062   7.402
 4333OM     OM1 4333   5.769   8.989   7.163
 4334OM     OM1 4334   5.752   8.819   7.363
 4335OM     OM1 4335   1.209   0.321   5.850
 4336OM     OM1 4336   1.090   0.525   5.728
 4337OM     OM1 4337   1.128   0.312   5.595
 4338OM     OM1 4338   0.837   8.304   8.458
 4339OM     OM1 4339   1.039   8.476   8.470
 4340OM     OM1 4340   1.032   8.281   8.280
 4341OM     OM1 4341   4.687   0.570   0.471
 4342OM     OM1 4342   4.762   0.663   0.241
 4343OM     OM1 4343   4.505   0.660   0.320
 4344OM     OM1 4344   4.676   0.829   0.426
 4345OM     OM1 4345   3.644   0.083   2.893
 4346OM     OM1 4346   3.426   9.595   2.793
 4347OM     OM1 4347   3.566   9.452   2.962
 4348OM     OM1 4348   3.419   0.044   3.043
 4349OM     OM1 4349   7.643   8.474   7.670
 4350OM     OM1 4350   7.541   8.533   7.445
 4351OM     OM1 4351   7.505   8.693   7.637
 4352OM     OM1 4352   7.749   8.670   7.524
 4353OM     OM1 4353   2.747   8.654   5.623
 4354OM     OM1 4354   2.557   8.811   5.487
 4355OM     OM1 4355   2.699   8.633   5.369
 4356OM     OM1 4356   2.808   8.855   5.464
 4357OM     OM1 4357   2.222   9.333   8.444
 4358OM     OM1 4358   2.189   9.067   8.416
 4359OM     OM1 4359   1.987   9.225   8.398
 4360OM     OM1 4360   2.171   9.222   8.211
 4361OM     OM1 4361   8.657   1.039   0.697
 4362OM     OM1 4362   8.501   0.963   0.893
 4363OM     OM1 4363   8.432   1.171   0.756
 4364OM     OM1 4364   8.434   0.942   0.632
 4365OM     OM1 4365   5.494   0.985   0.882
 4366OM     OM1 4366   5.281   0.989   0.709
 4367OM     OM1 4367   5.447   1.184   0.707
 4368OM     OM1 4368   5.518   0.964   0.611
 4369OM     OM1 4369   9.069   9.186   4.928
 4370OM     OM1 4370   9.203   9.269   5.129
 4371OM     OM1 4371   9.195   9.017   5.074
 4372OM     OM1 4372   9.055   9.220   0.198
 4373OM     OM1 4373   9.163   9.203   0.455
 4374OM     OM1 4374   3.551   0.848   3.354
 4375OM     OM1 4375   6.179   9.019   9.123
 4376OM     OM1 4376   5.927   9.024   9.097
 4377OM     OM1 4377   0.363   1.070   4.220
 4378OM     OM1 4378   0.319   1.250   4.396
 4379OM     OM1 4379   0.537   1.098   4.417
 4380OM     OM1 4380   3.769   9.267   7.239
 4381OM     OM1 4381   3.679   9.345   7.467
 4382OM     OM1 4382   5.685   1.093   8.660
 4383OM     OM1 4383   5.468   1.022   8.778
 4384OM     OM1 4384   5.616   1.193   8.893
 4385OM     OM1 4385   1.790   9.144   1.836
 4386OM     OM1 4386   1.796   9.164   1.577
 4387OM     OM1 4387   1.813   9.377   1.728
 4388OM     OM1 4388   2.017   9.213   1.721
 4389OM     OM1 4389   0.250   0.214   8.793
 4390OM     OM1 4390   0.074   0.357   8.679
 4391OM     OM1 4391   3.590   8.498   2.606
 4392OM     OM1 4392   3.792   8.436   2.454
 4393OM     OM1 4393   3.497   8.655   2.810
 4394OM     OM1 4394   0.252   9.459   8.607
 4395OM     OM1 4395   0.500   9.511   8.513
 4396OM     OM1 4396   0.311   9.440   8.355
 4397OM     OM1 4397   0.407   9.270   8.535
 4398OM     OM1 4398   2.790   1.172   1.430
 4399OM     OM1 4399   2.555   1.090   1.315
 4400OM     OM1 4400   2.775   1.035   1.205
 4401OM     OM1 4401   1.474   8.932   5.927
 4402OM     OM1 4402   1.465   9.027   6.176
 4403OM     OM1 4403   1.563   8.794   6.130
 4404OM     OM1 4404   7.382   9.209   8.676
 4405OM     OM1 4405   7.465   9.209   8.422
 4406OM     OM1 4406   7.312   9.016   8.529
 4407OM     OM1 4407   9.453   0.341   7.876
 4408OM     OM1 4408   9.480   0.567   7.759
 4409OM     OM1 4409   0.036   0.497   7.968
 4410OM     OM1 4410   7.050   8.971   6.014
 4411OM     OM1 4411   7.142   9.146   6.172
 4412OM     OM1 4412   7.050   9.220   5.929
 4413OM     OM1 4413   6.292   8.927   3.645
 4414OM     OM1 4414   6.515   8.947   3.502
 4415OM     OM1 4415   6.278   9.047   3.414
 4416OM     OM1 4416   6.329   8.793   3.424
 4417OM     OM1 4417   5.818   1.036   7.544
 4418OM     OM1 4418   6.034   1.157   7.512
 4419OM     OM1 4419   5.955   1.267   7.814
 4420OM     OM1 4420   2.963   0.607   6.393
 4421OM     OM1 4421   2.998   0.426   6.573
 4422OM     OM1 4422   3.073   0.370   6.322
 4423OM     OM1 4423   4.464   0.212   0.208
 4424OM     OM1 4424   4.577   0.343   0.398
 4425OM     OM1 4425   0.948   1.088   7.416
 4426OM     OM1 4426   0.811   1.107   7.185
 4427OM     OM1 4427   0.725   1.213   7.400
 4428OM     OM1 4428   3.066   9.478   9.382
 4429OM     OM1 4429   2.984   9.228   9.369
 4430OM     OM1 4430   2.891   9.388   9.195
 4431OM     OM1 4431   3.138   9.326   9.174
 4432OM     OM1 4432   0.193   8.350   6.157
 4433OM     OM1 4433   0.107   8.374   6.398
 4434OM     OM1 4434   9.554   8.427   6.182
 4435OM     OM1 4435   7.671   8.391   2.110
 4436OM     OM1 4436   4.117   8.689   2.039
 4437OM     OM1 4437   3.853   8.645   2.035
 4438OM     OM1 4438   3.958   8.843   1.905
 4439OM     OM1 4439   4.006   8.598   1.823
 4440OM     OM1 4440   5.808   0.155   8.517
 4441OM     OM1 4441   5.634   9.577   8.604
 4442OM     OM1 4442   3.796   8.832   8.515
 4443OM     OM1 4443   4.012   8.886   8.363
 4444OM     OM1 4444   3.969   8.988   8.612
 4445OM     OM1 4445   3.834   9.067   8.413
 4446OM     OM1 4446   4.106   1.088   6.100
 4447OM     OM1 4447   4.081   0.866   6.271
 4448OM     OM1 4448   4.133   0.847   6.027
 4449OM     OM1 4449   3.895   0.934   6.099
 4450OM     OM1 4450   4.154   1.013   7.310
 4451OM     OM1 4451   4.092   0.937   7.545
 4452OM     OM1 4452   4.246   1.153   7.507
 4453OM     OM1 4453   5.412   1.060   2.706
 4454OM     OM1 4454   5.346   1.307   2.653
 4455OM     OM1 4455   5.389   1.228   2.900
 4456OM     OM1 4456   1.935   0.837   5.803
 4457OM     OM1 4457   1.873   0.953   6.030
 4458OM     OM1 4458   1.687   0.844   5.862
 4459OM     OM1 4459   0.314   9.162   6.573
 4460OM     OM1 4460   0.465   9.338   6.460
 4461OM     OM1 4461   0.369   9.239   8.793
 4462OM     OM1 4462   0.423   9.270   9.045
 4463OM     OM1 4463   0.367   9.036   8.942
 4464OM     OM1 4464   6.942   0.624   7.856
 4465OM     OM1 4465   6.716   0.508   7.912
 4466OM     OM1 4466   2.567   0.264   9.212
 4467OM     OM1 4467   2.704   0.476   9.215
 4468OM     OM1 4468   2.676   0.336   9.431
 4469OM     OM1 4469   2.902   0.856   8.398
 4470OM     OM1 4470   3.121   0.912   8.266
 4471OM     OM1 4471   3.140   0.868   8.518
 4472OM     OM1 4472   3.078   0.668   8.364
 4473OM     OM1 4473   5.508   9.007   9.441
 4474OM     OM1 4474   5.625   8.945   0.064
 4475OM     OM1 4475   5.757   9.067   9.487
 4476OM     OM1 4476   7.676   1.249   5.137
 4477OM     OM1 4477   7.781   1.251   5.369
 4478OM     OM1 4478   7.537   1.348   5.331
 4479OM     OM1 4479   5.696   8.263   8.589
 4480OM     OM1 4480   5.336   8.472   8.598
 4481OM     OM1 4481   5.450   8.247   8.660
 4482OM     OM1 4482   3.309   9.181   8.036
 4483OM     OM1 4483   3.281   9.119   7.784
 4484OM     OM1 4484   3.349   9.368   7.850
 4485OM     OM1 4485   3.516   9.175   7.883
 4486OM     OM1 4486   7.426   8.835   8.986
 4487OM     OM1 4487   7.314   8.660   9.152
 4488OM     OM1 4488   7.266   8.920   9.156
 4489OM     OM1 4489   7.168   8.778   8.967
 4490OM     OM1 4490   9.274   8.792   4.577
 4491OM     OM1 4491   9.309   8.614   4.402
 4492OM     OM1 4492   9.167   8.837   4.352
 4493OM     OM1 4493   9.080   8.634   4.518
 4494OM     OM1 4494   4.658   8.318   0.340
 4495OM     OM1 4495   4.651   8.495   0.576
 4496OM     OM1 4496   4.636   8.577   0.340
 4497OM     OM1 4497   4.424   8.421   0.342
 4498OM     OM1 4498   5.815   0.226   2.363
 4499OM     OM1 4499   6.041   0.356   2.410
 4500OM     OM1 4500   6.047   0.131   2.285
 4501OM     OM1 4501   8.095   1.192   8.574
 4502OM     OM1 4502   7.897   1.001   8.585
 4503OM     OM1 4503   8.079   0.990   8.407
 4504OM     OM1 4504   9.528   0.028   3.754
 4505OM     OM1 4505   0.131   0.154   3.641
 4506OM     OM1 4506   9.510   0.278   3.653
 4507OM     OM1 4507   1.917   9.467   0.670
 4508OM     OM1 4508   1.826   0.006   0.468
 4509OM     OM1 4509   5.543   1.278   3.935
 4510OM     OM1 4510   5.334   1.272   4.081
 4511OM     OM1 4511   2.199   8.348   5.192
 4512OM     OM1 4512   2.209   8.469   5.430
 4513OM     OM1 4513   2.008   8.325   5.355
 4514OM     OM1 4514   5.522   1.253   8.398
 4515OM     OM1 4515   0.717   1.313   6.658
 4516OM     OM1 4516   0.959   1.298   6.578
 4517OM     OM1 4517   0.922   1.316   6.830
 4518OM     OM1 4518   0.309   8.763   5.894
 4519OM     OM1 4519   0.316   8.514   5.984
 4520OM     OM1 4520   0.523   8.631   5.855
 4521OM     OM1 4521   0.310   8.554   5.731
 4522OM     OM1 4522   1.190   9.118   4.419
 4523OM     OM1 4523   1.417   9.215   4.322
 4524OM     OM1 4524   9.123   0.629   5.867
 4525OM     OM1 4525   9.112   0.363   5.867
 4526OM     OM1 4526   9.030   0.443   9.312
 4527OM     OM1 4527   8.819   0.447   9.160
 4528OM     OM1 4528   8.817   0.535   9.421
 4529OM     OM1 4529   8.845   0.287   9.362
 4530OM     OM1 4530   9.584   1.296   5.189
 4531OM     OM1 4531   9.344   8.802   5.024
 4532OM     OM1 4532   9.381   9.017   4.891
 4533OM     OM1 4533   9.152   8.888   4.857
 4534OM     OM1 4534   0.705   1.367   5.272
 4535OM     OM1 4535   0.554   1.263   5.463
 4536OM     OM1 4536   4.807   0.804   3.525
 4537OM     OM1 4537   4.769   1.002   3.362
 4538OM     OM1 4538   4.619   0.975   3.582
 4539OM     OM1 4539   6.479   8.264   2.540
 4540OM     OM1 4540   8.584   0.757   3.061
 4541OM     OM1 4541   8.821   0.765   3.151
 4542OM     OM1 4542   8.658   0.572   3.222
 4543OM     OM1 4543   1.548   0.531   9.283
 4544OM     OM1 4544   1.435   0.589   9.057
 4545OM     OM1 4545   1.289   0.607   9.270
 4546OM     OM1 4546   4.154   9.531   6.132
 4547OM     OM1 4547   4.286   0.115   6.243
 4548OM     OM1 4548   4.178   9.527   6.388
 4549OM     OM1 4549   4.020   0.092   6.268
 4550OM     OM1 4550   5.739   8.586   6.132
 4551OM     OM1 4551   5.657   8.836   6.069
 4552OM     OM1 4552   5.526   8.678   6.225
 4553OM     OM1 4553   8.386   8.222   5.525
 4554OM     OM1 4554   8.561   8.486   5.775
 4555OM     OM1 4555   8.552   8.668   5.587
 4556OM     OM1 4556   8.576   8.406   5.539
 4557OM     OM1 4557   0.643   9.443   1.212
 4558OM     OM1 4558   0.535   9.220   1.180
 4559OM     OM1 4559   0.597   9.352   0.965
 4560OM     OM1 4560   6.906   8.589   1.506
 4561OM     OM1 4561   6.611   8.564   1.729
 4562OM     OM1 4562   6.609   8.816   1.655
 4563OM     OM1 4563   0.404   9.493   9.161
 4564OM     OM1 4564   0.652   9.411   9.093
 4565OM     OM1 4565   7.119   8.482   4.243
 4566OM     OM1 4566   7.112   8.721   4.338
 4567OM     OM1 4567   6.650   9.362   7.947
 4568OM     OM1 4568   7.680   9.483   9.218
 4569OM     OM1 4569   7.544   0.099   9.190
 4570OM     OM1 4570   7.632   9.596   8.982
 4571OM     OM1 4571   7.448   9.459   9.103
 4572OM     OM1 4572   7.722   0.067   2.797
 4573OM     OM1 4573   7.941   9.568   2.905
 4574OM     OM1 4574   7.714   9.596   3.041
 4575OM     OM1 4575   5.864   1.111   8.063
 4576OM     OM1 4576   5.680   1.222   8.195
 4577OM     OM1 4577   5.790   1.347   7.992
 4578OM     OM1 4578   5.624   1.154   7.950
 4579OM     OM1 4579   0.849   8.678   3.110
 4580OM     OM1 4580   0.680   8.493   3.199
 4581OM     OM1 4581   0.599   8.670   3.032
 4582OM     OM1 4582   0.654   8.735   3.281
 4583OM     OM1 4583   3.335   0.871   2.427
 4584OM     OM1 4584   3.219   1.058   2.300
 4585OM     OM1 4585   8.221   0.806   0.637
 4586OM     OM1 4586   0.086   1.236   3.145
 4587OM     OM1 4587   9.552   1.180   3.362
 4588OM     OM1 4588   9.489   1.075   3.129
 4589OM     OM1 4589   4.324   1.189   0.724
 4590OM     OM1 4590   4.213   0.956   0.735
 4591OM     OM1 4591   4.253   1.077   0.510
 4592OM     OM1 4592   4.068   1.171   0.680
 4593OM     OM1 4593   1.507   0.736   2.943
 4594OM     OM1 4594   1.374   0.591   3.412
 4595OM     OM1 4595   1.477   0.701   3.200
 4596OM     OM1 4596   3.824   9.562   2.655
 4597OM     OM1 4597   3.959   0.189   2.707
 4598OM     OM1 4598   3.759   0.191   2.553
 4599OM     OM1 4599   5.804   0.813   8.231
 4600OM     OM1 4600   5.913   0.652   8.047
 4601OM     OM1 4601   6.001   0.897   8.092
 4602OM     OM1 4602   5.780   0.852   7.962
 4603OM     OM1 4603   0.524   8.274   0.424
 4604OM     OM1 4604   0.480   8.257   0.166
 4605OM     OM1 4605   3.987   8.767   8.803
 4606OM     OM1 4606   4.062   8.841   9.041
 4607OM     OM1 4607   0.953   8.369   4.598
 4608OM     OM1 4608   1.051   8.469   4.388
 4609OM     OM1 4609   4.375   0.879   2.408
 4610OM     OM1 4610   4.639   0.876   2.470
 4611OM     OM1 4611   4.483   0.673   2.521
 4612OM     OM1 4612   4.546   0.737   2.271
 4613OM     OM1 4613   1.967   0.054   6.616
 4614OM     OM1 4614   2.179   9.483   6.616
 4615OM     OM1 4615   2.160   0.066   6.447
 4616OM     OM1 4616   2.192   0.126   6.705
 4617OM     OM1 4617   0.368   8.513   3.645
 4618OM     OM1 4618   0.266   8.759   3.620
 4619OM     OM1 4619   0.455   8.685   3.453
 4620OM     OM1 4620   7.262   0.500   1.063
 4621OM     OM1 4621   7.310   0.471   0.798
 4622OM     OM1 4622   7.461   0.621   0.942
 4623OM     OM1 4623   6.130   1.283   7.302
 4624OM     OM1 4624   6.266   1.239   7.513
 4625OM     OM1 4625   6.932   9.024   7.704
 4626OM     OM1 4626   7.109   9.378   7.773
 4627OM     OM1 4627   7.324   9.298   7.881
 4628OM     OM1 4628   2.970   0.867   6.429
 4629OM     OM1 4629   2.758   0.755   6.325
 4630OM     OM1 4630   3.518   0.748   1.073
 4631OM     OM1 4631   3.739   0.868   1.160
 4632OM     OM1 4632   3.549   0.818   1.325
 4633OM     OM1 4633   3.702   0.625   1.220
 4634OM     OM1 4634   8.321   0.557   6.014
 4635OM     OM1 4635   8.147   0.477   5.847
 4636OM     OM1 4636   2.247   8.404   7.187
 4637OM     OM1 4637   2.441   8.426   7.009
 4638OM     OM1 4638   2.461   8.538   7.247
 4639OM     OM1 4639   5.996   0.068   3.541
 4640OM     OM1 4640   6.000   0.302   3.667
 4641OM     OM1 4641   1.001   9.273   4.875
 4642OM     OM1 4642   1.019   9.009   4.851
 4643OM     OM1 4643   1.052   9.154   4.647
 4644OM     OM1 4644   0.815   9.145   4.750
 4645OM     OM1 4645   3.143   8.572   1.372
 4646OM     OM1 4646   2.972   8.613   1.565
 4647OM     OM1 4647   3.231   8.663   1.600
 4648OM     OM1 4648   3.881   1.208   4.301
 4649OM     OM1 4649   3.975   1.049   4.505
 4650OM     OM1 4650   3.886   1.289   4.540
 4651OM     OM1 4651   4.961   0.609   6.483
 4652OM     OM1 4652   5.026   0.659   6.730
 4653OM     OM1 4653   4.936   0.415   6.665
 4654OM     OM1 4654   6.454   0.500   1.994
 4655OM     OM1 4655   6.521   0.337   1.796
 4656OM     OM1 4656   6.515   0.251   2.038
 4657OM     OM1 4657   6.290   0.313   1.917
 4658OM     OM1 4658   1.299   8.742   1.301
 4659OM     OM1 4659   1.043   8.760   1.279
 4660OM     OM1 4660   2.627   0.614   2.240
 4661OM     OM1 4661   2.727   0.830   2.313
 4662OM     OM1 4662   2.476   0.777   2.392
 4663OM     OM1 4663   2.676   0.655   2.501
 4664OM     OM1 4664   9.523   0.664   2.208
 4665OM     OM1 4665   0.039   0.713   2.431
 4666OM     OM1 4666   9.409   0.814   2.402
 4667OM     OM1 4667   7.463   8.882   8.080
 4668OM     OM1 4668   7.524   8.613   8.089
 4669OM     OM1 4669   7.423   8.733   7.880
 4670OM     OM1 4670   7.270   8.700   8.086
 4671OM     OM1 4671   3.314   0.346   6.233
 4672OM     OM1 4672   3.123   0.359   6.061
 4673OM     OM1 4673   3.162   0.143   6.210
 4674OM     OM1 4674   3.630   8.401   8.360
 4675OM     OM1 4675   3.487   8.461   8.145
 4676OM     OM1 4676   3.368   8.576   8.561
 4677OM     OM1 4677   3.466   8.621   8.340
 4678OM     OM1 4678   8.763   8.792   3.549
 4679OM     OM1 4679   8.589   8.731   3.735
 4680OM     OM1 4680   8.792   8.891   3.786
 4681OM     OM1 4681   8.588   8.973   3.644
 4682OM     OM1 4682   9.602   9.269   1.267
 4683OM     OM1 4683   0.072   9.419   1.471
 4684OM     OM1 4684   1.370   9.290   0.273
 4685OM     OM1 4685   1.327   9.388   0.038
 4686OM     OM1 4686   1.127   9.279   0.165
 4687OM     OM1 4687   1.317   9.129   0.067
 4688OM     OM1 4688   4.709   0.993   5.406
 4689OM     OM1 4689   4.665   1.036   5.658
 4690OM     OM1 4690   4.736   0.801   5.576
 4691OM     OM1 4691   2.510   1.333   6.998
 4692OM     OM1 4692   2.300   1.468   6.946
 4693OM     OM1 4693   2.291   1.302   7.141
 4694OM     OM1 4694   3.941   0.879   4.712
 4695OM     OM1 4695   4.162   1.007   4.685
 4696OM     OM1 4696   9.281   0.077   7.051
 4697OM     OM1 4697   9.442   9.518   6.956
 4698OM     OM1 4698   8.783   0.732   8.930
 4699OM     OM1 4699   8.932   0.880   9.079
 4700OM     OM1 4700   3.906   1.219   4.045
 4701OM     OM1 4701   3.711   1.351   4.162
 4702OM     OM1 4702   1.814   0.168   2.978
 4703OM     OM1 4703   1.777   0.309   2.771
 4704OM     OM1 4704   1.838   0.050   2.740
 4705OM     OM1 4705   1.772   8.725   7.400
 4706OM     OM1 4706   2.019   8.639   7.372
 4707OM     OM1 4707   1.841   8.476   7.453
 4708OM     OM1 4708   6.685   8.644   2.833
 4709OM     OM1 4709   6.715   8.415   2.970
 4710OM     OM1 4710   6.680   8.643   3.085
 4711OM     OM1 4711   5.048   0.873   2.830
 4712OM     OM1 4712   5.315   0.884   2.863
 4713OM     OM1 4713   5.193   0.673   2.931
 4714OM     OM1 4714   5.157   0.880   3.073
 4715OM     OM1 4715   1.474   8.924   0.037
 4716OM     OM1 4716   1.288   8.828   0.192
 4717OM     OM1 4717   5.156   9.476   8.989
 4718OM     OM1 4718   5.298   9.320   8.835
 4719OM     OM1 4719   5.071   9.237   8.919
 4720OM     OM1 4720   5.272   9.264   9.089
 4721OM     OM1 4721   7.975   0.211   4.720
 4722OM     OM1 4722   8.024   0.432   4.834
 4723OM     OM1 4723   8.055   0.220   4.977
 4724OM     OM1 4724   8.224   0.259   4.787
 4725OM     OM1 4725   1.247   9.390   8.446
 4726OM     OM1 4726   1.027   9.523   8.406
 4727OM     OM1 4727   1.010   9.264   8.434
 4728OM     OM1 4728   1.118   9.368   8.221
 4729OM     OM1 4729   0.894   9.378   1.177
 4730OM     OM1 4730   0.832   9.453   1.417
 4731OM     OM1 4731   0.820   0.020   1.229
 4732OM     OM1 4732   6.137   1.005   4.230
 4733OM     OM1 4733   6.134   1.255   4.208
 4734OM     OM1 4734   5.907   1.128   4.283
 4735OM     OM1 4735   5.977   1.103   4.046
 4736OM     OM1 4736   5.929   1.204   5.023
 4737OM     OM1 4737   5.910   1.369   4.823
 4738OM     OM1 4738   5.527   1.064   5.776
 4739OM     OM1 4739   5.464   0.812   5.890
 4740OM     OM1 4740   5.377   0.898   5.664
 4741OM     OM1 4741   5.288   0.998   5.889
 4742OM     OM1 4742   6.426   9.588   3.961
 4743OM     OM1 4743   6.543   9.457   4.154
 4744OM     OM1 4744   6.527   9.365   3.898
 4745OM     OM1 4745   8.733   0.081   0.340
 4746OM     OM1 4746   8.688   9.431   0.256
 4747OM     OM1 4747   3.049   9.095   0.552
 4748OM     OM1 4748   2.960   9.149   0.795
 4749OM     OM1 4749   3.198   9.055   0.749
 4750OM     OM1 4750   0.062   9.089   6.626
 4751OM     OM1 4751   9.427   8.996   6.716
 4752OM     OM1 4752   8.133   0.133   5.214
 4753OM     OM1 4753   8.140   0.386   5.157
 4754OM     OM1 4754   7.910   0.260   5.192
 4755OM     OM1 4755   7.772   0.116   5.363
 4756OM     OM1 4756   6.716   8.942   6.384
 4757OM     OM1 4757   6.860   8.876   6.183
 4758OM     OM1 4758   6.642   8.728   6.244
 4759OM     OM1 4759   6.233   0.880   6.300
 4760OM     OM1 4760   6.038   0.958   6.116
 4761OM     OM1 4761   6.011   0.757   6.260
 4762OM     OM1 4762   5.350   0.525   2.781
 4763OM     OM1 4763   5.121   0.622   2.698
 4764OM     OM1 4764   5.130   0.424   2.879
 4765OM     OM1 4765   7.501   0.008   1.066
 4766OM     OM1 4766   4.272   8.807   9.182
 4767OM     OM1 4767   4.092   8.611   9.169
 4768OM     OM1 4768   4.050   8.818   9.306
 4769OM     OM1 4769   0.526   9.423   5.199
 4770OM     OM1 4770   0.501   9.600   5.385
 4771OM     OM1 4771   6.685   8.271   9.579
 4772OM     OM1 4772   6.879   8.374   9.441
 4773OM     OM1 4773   5.698   1.159   1.524
 4774OM     OM1 4774   5.861   0.957   1.491
 4775OM     OM1 4775   5.812   1.123   1.298
 4776OM     OM1 4776   5.953   1.211   1.514
 4777OM     OM1 4777   6.791   1.199   0.168
 4778OM     OM1 4778   6.790   1.007   0.002
 4779OM     OM1 4779   6.668   1.211   9.536
 4780OM     OM1 4780   6.571   1.044   0.123
 4781OM     OM1 4781   4.290   9.203   2.245
 4782OM     OM1 4782   4.353   8.953   2.189
 4783OM     OM1 4783   4.474   9.271   2.075
 4784OM     OM1 4784   6.606   1.075   5.284
 4785OM     OM1 4785   6.655   0.995   5.046
 4786OM     OM1 4786   1.148   9.601   6.129
 4787OM     OM1 4787   1.413   9.535   6.166
 4788OM     OM1 4788   1.328   0.145   6.022
 4789OM     OM1 4789   8.043   8.327   7.823
 4790OM     OM1 4790   3.109   1.217   8.293
 4791OM     OM1 4791   3.262   1.225   8.520
 4792OM     OM1 4792   3.343   1.339   8.298
 4793OM     OM1 4793   5.376   0.732   9.107
 4794OM     OM1 4794   5.150   0.621   9.098
 4795OM     OM1 4795   1.334   1.387   1.495
 4796OM     OM1 4796   8.743   9.520   9.137
 4797OM     OM1 4797   8.704   9.269   9.147
 4798OM     OM1 4798   8.554   9.424   8.999
 4799OM     OM1 4799   8.816   9.343   8.940
 4800OM     OM1 4800   9.044   1.190   1.442
 4801OM     OM1 4801   8.781   9.400   0.017
 4802OM     OM1 4802   8.535   9.367   0.045
 4803OM     OM1 4803   8.670   9.469   9.385
 4804OM     OM1 4804   1.720   0.637   4.075
 4805OM     OM1 4805   1.608   0.582   3.848
 4806OM     OM1 4806   1.683   0.162   3.962
 4807OM     OM1 4807   3.132   8.562   2.498
 4808OM     OM1 4808   3.162   8.518   2.240
 4809OM     OM1 4809   2.951   8.434   2.360
 4810OM     OM1 4810   5.872   8.326   4.418
 4811OM     OM1 4811   6.068   8.392   4.563
 4812OM     OM1 4812   5.978   8.415   4.206
 4813OM     OM1 4813   8.969   8.443   2.882
 4814OM     OM1 4814   9.043   8.299   2.680
 4815OM     OM1 4815   4.606   8.295   5.682
 4816OM     OM1 4816   4.848   8.291   5.580
 4817OM     OM1 4817   5.736   8.297   5.456
 4818OM     OM1 4818   6.220   0.036   4.272
 4819OM     OM1 4819   6.096   0.065   4.045
 4820OM     OM1 4820   6.044   0.219   4.234
 4821OM     OM1 4821   0.534   0.512   3.938
 4822OM     OM1 4822   0.290   0.443   3.879
 4823OM     OM1 4823   0.498   0.291   3.814
 4824OM     OM1 4824   0.452   0.512   3.687
 4825OM     OM1 4825   4.256   1.178   0.186
 4826OM     OM1 4826   4.075   1.227   0.022
 4827OM     OM1 4827   4.025   1.057   0.221
 4828OM     OM1 4828   6.117   9.059   8.175
 4829OM     OM1 4829   6.161   8.822   8.261
 4830OM     OM1 4830   6.027   8.859   8.035
 4831OM     OM1 4831   5.806   8.954   3.242
 4832OM     OM1 4832   6.060   8.987   3.275
 4833OM     OM1 4833   5.962   8.745   3.238
 4834OM     OM1 4834   5.954   8.887   3.031
 4835OM     OM1 4835   3.543   0.084   6.942
 4836OM     OM1 4836   3.315   0.195   6.894
 4837OM     OM1 4837   3.363   0.050   7.123
 4838OM     OM1 4838   7.975   8.904   3.267
 4839OM     OM1 4839   7.735   8.865   3.378
 4840OM     OM1 4840   7.841   8.681   3.221
 4841OM     OM1 4841   5.787   0.686   8.463
 4842OM     OM1 4842   5.597   0.509   8.457
 4843OM     OM1 4843   5.838   0.418   8.461
 4844OM     OM1 4844   5.748   0.525   8.675
 4845OM     OM1 4845   8.337   0.239   1.946
 4846OM     OM1 4846   8.556   0.110   1.857
 4847OM     OM1 4847   8.397   0.000   2.036
 4848OM     OM1 4848   5.606   8.444   2.230
 4849OM     OM1 4849   5.822   8.352   2.315
 4850OM     OM1 4850   8.621   9.586   2.822
 4851OM     OM1 4851   8.553   9.506   2.583
 4852OM     OM1 4852   8.509   9.358   2.787
 4853OM     OM1 4853   3.907   8.585   2.278
 4854OM     OM1 4854   4.058   8.439   2.433
 4855OM     OM1 4855   3.935   8.646   2.524
 4856OM     OM1 4856   2.874   0.788   5.659
 4857OM     OM1 4857   2.820   0.539   5.713
 4858OM     OM1 4858   1.495   0.219   3.341
 4859OM     OM1 4859   1.423   0.414   3.190
 4860OM     OM1 4860   1.702   0.544   3.610
 4861OM     OM1 4861   7.216   8.298   2.306
 4862OM     OM1 4862   7.458   8.318   2.226
 4863OM     OM1 4863   2.366   8.842   2.746
 4864OM     OM1 4864   2.478   8.946   2.953
 4865OM     OM1 4865   2.571   8.723   2.850
 4866OM     OM1 4866   2.340   8.727   2.981
 4867OM     OM1 4867   6.684   0.001   5.538
 4868OM     OM1 4868   6.550   9.543   5.758
 4869OM     OM1 4869   6.599   0.185   5.704
 4870OM     OM1 4870   6.917   1.361   0.827
 4871OM     OM1 4871   6.892   1.297   1.084
 4872OM     OM1 4872   6.362   9.404   0.521
 4873OM     OM1 4873   0.079   8.902   1.613
 4874OM     OM1 4874   0.113   9.037   1.839
 4875OM     OM1 4875   0.042   8.783   1.830
 4876OM     OM1 4876   5.164   9.354   4.615
 4877OM     OM1 4877   5.428   9.340   4.651
 4878OM     OM1 4878   5.303   9.169   4.503
 4879OM     OM1 4879   6.591   1.186   8.104
 4880OM     OM1 4880   5.176   8.566   2.526
 4881OM     OM1 4881   4.971   8.708   2.449
 4882OM     OM1 4882   5.181   8.839   2.493
 4883OM     OM1 4883   7.905   0.583   4.659
 4884OM     OM1 4884   8.075   0.679   4.836
 4885OM     OM1 4885   7.830   0.588   4.906
 4886OM     OM1 4886   8.347   1.296   4.798
 4887OM     OM1 4887   3.007   0.917   5.955
 4888OM     OM1 4888   3.236   1.027   5.875
 4889OM     OM1 4889   3.108   0.872   5.721
 4890OM     OM1 4890   3.225   0.775   5.940
 4891OM     OM1 4891   1.050   9.111   0.495
 4892OM     OM1 4892   1.068   8.947   0.288
 4893OM     OM1 4893   0.922   9.161   0.270
 4894OM     OM1 4894   0.964   8.305   1.869
 4895OM     OM1 4895   3.669   8.443   7.861
 4896OM     OM1 4896   3.691   8.287   7.665
 4897OM     OM1 4897   2.884   8.904   3.298
 4898OM     OM1 4898   2.924   9.083   3.479
 4899OM     OM1 4899   2.677   8.698   6.178
 4900OM     OM1 4900   2.559   8.475   6.238
 4901OM     OM1 4901   2.525   8.489   6.495
 4902OM     OM1 4902   2.803   9.197   9.033
 4903OM     OM1 4903   2.804   9.002   8.843
 4904OM     OM1 4904   2.985   9.007   9.021
 4905OM     OM1 4905   2.734   8.953   9.090
 4906OM     OM1 4906   0.205   9.395   0.508
 4907OM     OM1 4907   0.031   9.281   0.675
 4908OM     OM1 4908   0.148   9.507   0.729
 4909OM     OM1 4909   0.286   9.283   0.725
 4910OM     OM1 4910   6.023   9.389   3.581
 4911OM     OM1 4911   6.061   9.206   3.763
 4912OM     OM1 4912   5.834   9.227   3.624
 4913OM     OM1 4913   6.052   9.134   3.505
 4914OM     OM1 4914   7.609   9.564   3.283
 4915OM     OM1 4915   7.679   9.580   3.545
 4916OM     OM1 4916   7.751   0.150   3.363
 4917OM     OM1 4917   7.848   9.513   3.361
 4918OM     OM1 4918   5.680   9.520   2.151
 4919OM     OM1 4919   5.824   9.416   1.962
 4920OM     OM1 4920   5.729   0.062   1.950
 4921OM     OM1 4921   5.930   9.599   2.107
 4922OM     OM1 4922   8.828   1.311   2.405
 4923OM     OM1 4923   1.376   9.187   2.900
 4924OM     OM1 4924   1.313   9.012   2.706
 4925OM     OM1 4925   1.181   9.023   2.933
 4926OM     OM1 4926   1.627   0.693   5.647
 4927OM     OM1 4927   1.454   0.865   5.749
 4928OM     OM1 4928   1.671   0.954   5.631
 4929OM     OM1 4929   0.581   8.370   3.592
 4930OM     OM1 4930   0.345   8.285   3.543
 4931OM     OM1 4931   7.625   9.205   6.157
 4932OM     OM1 4932   5.058   1.187   1.096
 4933OM     OM1 4933   1.136   0.903   8.642
 4934OM     OM1 4934   1.155   0.794   8.399
 4935OM     OM1 4935   1.318   0.721   8.605
 4936OM     OM1 4936   1.070   0.655   8.589
 4937OM     OM1 4937   0.713   8.373   4.928
 4938OM     OM1 4938   1.148   8.436   5.105
 4939OM     OM1 4939   0.888   8.400   5.127
 4940OM     OM1 4940   5.323   8.970   0.491
 4941OM     OM1 4941   5.459   9.253   0.578
 4942OM     OM1 4942   5.207   9.193   0.532
 4943OM     OM1 4943   5.309   9.147   0.763
 4944OM     OM1 4944   1.079   9.152   6.598
 4945OM     OM1 4945   1.017   9.211   6.353
 4946OM     OM1 4946   0.825   9.176   6.520
 4947OM     OM1 4947   6.510   9.132   3.790
 4948OM     OM1 4948   6.296   9.301   3.797
 4949OM     OM1 4949   6.498   9.336   3.633
 4950OM     OM1 4950   3.694   0.968   2.184
 4951OM     OM1 4951   3.821   0.797   2.343
 4952OM     OM1 4952   3.778   1.039   2.419
 4953OM     OM1 4953   3.948   0.990   2.228
 4954OM     OM1 4954   5.670   1.060   6.581
 4955OM     OM1 4955   5.580   1.299   6.520
 4956OM     OM1 4956   5.759   1.195   6.365
 4957OM     OM1 4957   4.459   0.728   4.173
 4958OM     OM1 4958   4.518   0.518   4.036
 4959OM     OM1 4959   4.494   0.506   4.297
 4960OM     OM1 4960   4.701   0.635   4.200
 4961OM     OM1 4961   5.374   1.318   2.392
 4962OM     OM1 4962   2.146   0.959   2.217
 4963OM     OM1 4963   2.201   1.201   2.296
 4964OM     OM1 4964   6.579   0.786   0.050
 4965OM     OM1 4965   6.450   0.864   0.270
 4966OM     OM1 4966   6.363   0.925   0.024
 4967OM     OM1 4967   4.960   0.966   1.615
 4968OM     OM1 4968   5.169   1.006   1.750
 4969OM     OM1 4969   8.510   8.532   1.783
 4970OM     OM1 4970   8.601   8.532   2.031
 4971OM     OM1 4971   8.522   8.309   1.917
 4972OM     OM1 4972   8.719   9.416   8.164
 4973OM     OM1 4973   8.922   9.391   8.319
 4974OM     OM1 4974   8.682   9.350   8.419
 4975OM     OM1 4975   8.789   9.180   8.249
 4976OM     OM1 4976   7.777   9.230   8.777
 4977OM     OM1 4977   7.929   9.043   8.923
 4978OM     OM1 4978   8.006   9.162   8.709
 4979OM     OM1 4979   8.044   9.172   0.531
 4980OM     OM1 4980   8.154   9.285   0.322
 4981OM     OM1 4981   5.711   8.265   1.643
 4982OM     OM1 4982   5.577   8.392   1.458
 4983OM     OM1 4983   6.095   0.492   7.924
 4984OM     OM1 4984   5.962   0.409   8.124
 4985OM     OM1 4985   6.134   0.605   8.160
 4986OM     OM1 4986   1.721   9.512   3.596
 4987OM     OM1 4987   1.579   9.323   3.509
 4988OM     OM1 4988   1.533   9.567   3.416
 4989OM     OM1 4989   3.544   9.405   7.681
 4990OM     OM1 4990   2.827   8.526   8.061
 4991OM     OM1 4991   2.960   8.308   7.988
 4992OM     OM1 4992   8.059   0.729   8.892
 4993OM     OM1 4993   8.298   0.699   8.989
 4994OM     OM1 4994   8.204   1.255   3.451
 4995OM     OM1 4995   8.429   1.249   3.584
 4996OM     OM1 4996   2.989   1.239   2.023
 4997OM     OM1 4997   2.764   1.276   2.126
 4998OM     OM1 4998   7.248   8.539   5.246
 4999OM     OM1 4999   7.520   8.559   5.228
 5000OM     OM1 5000   7.393   8.379   5.380
 5001OM     OM1 5001   7.403   8.387   5.103
 5002OM     OM1 5002   2.034   9.222   3.817
 5003OM     OM1 5003   1.865   9.068   3.702
 5004OM     OM1 5004   1.798   9.326   3.759
 5005OM     OM1 5005   3.768   9.564   9.399
 5006OM     OM1 5006   3.550   9.601   9.538
 5007OM     OM1 5007   3.561   0.074   9.286
 5008OM     OM1 5008   7.894   0.161   6.093
 5009OM     OM1 5009   7.861   0.123   6.349
 5010OM     OM1 5010   7.528   0.372   9.497
 5011OM     OM1 5011   7.627   0.586   9.389
 5012OM     OM1 5012   7.927   0.511   0.025
 5013OM     OM1 5013   7.694   0.405   0.080
 5014OM     OM1 5014   5.304   9.162   1.535
 5015OM     OM1 5015   5.357   9.020   1.323
 5016OM     OM1 5016   5.231   8.899   1.524
 5017OM     OM1 5017   5.116   9.081   1.389
 5018OM     OM1 5018   3.530   8.547   4.509
 5019OM     OM1 5019   3.564   8.272   4.539
 5020OM     OM1 5020   3.336   8.377   4.492
 5021OM     OM1 5021   8.376   9.322   1.101
 5022OM     OM1 5022   6.313   9.006   5.094
 5023OM     OM1 5023   6.097   9.031   4.967
 5024OM     OM1 5024   6.127   8.850   5.163
 5025OM     OM1 5025   6.083   9.099   5.215
 5026OM     OM1 5026   2.145   0.852   0.132
 5027OM     OM1 5027   2.060   0.826   0.379
 5028OM     OM1 5028   0.011   9.544   2.276
 5029OM     OM1 5029   9.440   9.354   2.234
 5030OM     OM1 5030   0.057   1.314   6.875
 5031OM     OM1 5031   9.547   1.106   6.996
 5032OM     OM1 5032   0.055   9.296   7.509
 5033OM     OM1 5033   0.021   9.057   7.615
 5034OM     OM1 5034   9.584   9.261   7.759
 5035OM     OM1 5035   9.418   9.205   7.551
 5036OM     OM1 5036   4.871   8.844   4.013
 5037OM     OM1 5037   5.097   8.786   3.892
 5038OM     OM1 5038   1.050   8.366   3.520
 5039OM     OM1 5039   6.890   8.349   0.311
 5040OM     OM1 5040   7.114   8.356   0.422
 5041OM     OM1 5041   7.096   8.362   0.147
 5042OM     OM1 5042   7.053   8.568   0.291
 5043OM     OM1 5043   2.059   1.375   9.193
 5044OM     OM1 5044   2.134   1.209   9.374
 5045OM     OM1 5045   7.310   9.310   8.915
 5046OM     OM1 5046   7.278   9.560   8.944
 5047OM     OM1 5047   7.193   9.399   9.131
 5048OM     OM1 5048   1.412   0.232   7.148
 5049OM     OM1 5049   1.629   9.480   6.903
 5050OM     OM1 5050   1.478   0.072   6.956
 5051OM     OM1 5051   1.452   0.325   6.906
 5052OM     OM1 5052   4.900   9.338   4.633
 5053OM     OM1 5053   5.003   9.479   4.448
 5054OM     OM1 5054   9.445   8.290   1.159
 5055OM     OM1 5055   0.043   8.457   1.174
 5056OM     OM1 5056   4.823   1.049   4.649
 5057OM     OM1 5057   4.947   0.854   4.523
 5058OM     OM1 5058   4.988   1.100   4.446
 5059OM     OM1 5059   4.704   0.657   5.198
 5060OM     OM1 5060   4.666   0.553   5.626
 5061OM     OM1 5061   4.566   0.677   5.420
 5062OM     OM1 5062   7.305   0.133   0.276
 5063OM     OM1 5063   7.191   9.499   0.302
 5064OM     OM1 5064   7.084   0.116   0.409
 5065OM     OM1 5065   7.812   0.647   7.601
 5066OM     OM1 5066   7.782   0.622   7.862
 5067OM     OM1 5067   8.002   0.559   7.751
 5068OM     OM1 5068   3.267   8.527   0.802
 5069OM     OM1 5069   3.076   8.375   0.701
 5070OM     OM1 5070   3.048   8.634   0.689
 5071OM     OM1 5071   1.119   0.586   9.488
 5072OM     OM1 5072   1.368   0.609   9.502
 5073OM     OM1 5073   1.219   0.817   9.433
 5074OM     OM1 5074   9.065   8.952   7.775
 5075OM     OM1 5075   9.252   9.117   7.829
 5076OM     OM1 5076   9.178   9.108   7.579
 5077OM     OM1 5077   9.297   8.903   7.683
 5078OM     OM1 5078   3.767   0.682   8.892
 5079OM     OM1 5079   3.645   0.874   8.773
 5080OM     OM1 5080   3.510   0.662   8.828
 5081OM     OM1 5081   4.811   8.664   8.484
 5082OM     OM1 5082   4.578   8.548   8.513
 5083OM     OM1 5083   8.773   0.017   5.974
 5084OM     OM1 5084   9.004   0.128   5.935
 5085OM     OM1 5085   0.409   0.863   6.234
 5086OM     OM1 5086   0.341   0.763   6.001
 5087OM     OM1 5087   0.559   0.896   6.015
 5088OM     OM1 5088   0.580   0.888   1.694
 5089OM     OM1 5089   0.342   0.911   1.806
 5090OM     OM1 5090   0.381   0.995   1.564
 5091OM     OM1 5091   0.486   1.132   1.749
 5092OM     OM1 5092   2.491   8.373   0.056
 5093OM     OM1 5093   2.456   8.357   0.319
 5094OM     OM1 5094   2.418   8.580   0.215
 5095OM     OM1 5095   2.256   8.383   0.150
 5096OM     OM1 5096   2.546   0.008   1.043
 5097OM     OM1 5097   2.528   0.145   1.262
 5098OM     OM1 5098   2.743   0.006   1.214
 5099OM     OM1 5099   2.694   0.225   1.080
 5100OM     OM1 5100   5.171   0.133   5.163
 5101OM     OM1 5101   5.421   0.067   5.216
 5102OM     OM1 5102   5.294   0.217   5.383
 5103OM     OM1 5103   5.340   0.323   5.150
 5104OM     OM1 5104   6.940   8.303   3.012
 5105OM     OM1 5105   6.794   8.389   3.218
 5106OM     OM1 5106   2.819   1.028   2.182
 5107OM     OM1 5107   2.576   1.103   2.146
 5108OM     OM1 5108   8.576   0.319   5.257
 5109OM     OM1 5109   8.670   0.323   5.012
 5110OM     OM1 5110   8.483   0.482   5.073
 5111OM     OM1 5111   8.438   0.222   5.066
 5112OM     OM1 5112   6.855   9.221   9.027
 5113OM     OM1 5113   6.857   9.180   9.283
 5114OM     OM1 5114   7.039   9.065   9.138
 5115OM     OM1 5115   7.007   9.389   9.322
 5116OM     OM1 5116   5.663   1.015   4.229
 5117OM     OM1 5117   5.879   0.877   4.296
 5118OM     OM1 5118   8.156   8.576   4.317
 5119OM     OM1 5119   8.189   8.765   4.497
 5120OM     OM1 5120   8.390   8.688   4.354
 5121OM     OM1 5121   8.302   8.536   4.541
 5122OM     OM1 5122   3.965   0.364   5.184
 5123OM     OM1 5123   3.924   0.281   4.943
 5124OM     OM1 5124   4.080   0.487   4.970
 5125OM     OM1 5125   3.769   0.385   4.767
 5126OM     OM1 5126   3.837   0.133   4.742
 5127OM     OM1 5127   6.878   8.684   7.102
 5128OM     OM1 5128   7.106   8.616   6.987
 5129OM     OM1 5129   7.106   8.700   7.235
 5130OM     OM1 5130   5.369   8.294   0.125
 5131OM     OM1 5131   5.295   8.377   9.502
 5132OM     OM1 5132   5.106   8.282   0.039
 5133OM     OM1 5133   3.538   8.290   3.561
 5134OM     OM1 5134   3.449   8.332   3.801
 5135OM     OM1 5135   6.324   8.365   9.023
 5136OM     OM1 5136   6.377   8.460   9.258
 5137OM     OM1 5137   6.003   0.905   4.750
 5138OM     OM1 5138   5.765   0.995   4.734
 5139OM     OM1 5139   5.845   0.834   4.944
 5140OM     OM1 5140   5.805   0.737   4.712
 5141OM     OM1 5141   1.999   8.220   6.790
 5142OM     OM1 5142   2.164   8.265   6.987
 5143OM     OM1 5143   2.155   8.424   6.775
 5144OM     OM1 5144   5.571   0.805   3.081
 5145OM     OM1 5145   5.620   0.978   3.277
 5146OM     OM1 5146   5.516   1.069   3.061
 5147OM     OM1 5147   5.377   0.903   3.213
 5148OM     OM1 5148   9.261   0.305   6.374
 5149OM     OM1 5149   9.463   0.139   6.401
 5150OM     OM1 5150   9.217   0.053   6.431
 5151OM     OM1 5151   5.887   8.571   4.499
 5152OM     OM1 5152   5.995   8.684   4.696
 5153OM     OM1 5153   6.017   8.793   4.462
 5154OM     OM1 5154   2.371   8.893   6.737
 5155OM     OM1 5155   2.523   8.714   6.635
 5156OM     OM1 5156   2.593   8.963   6.598
 5157OM     OM1 5157   6.042   0.516   2.036
 5158OM     OM1 5158   6.262   0.659   2.066
 5159OM     OM1 5159   6.194   0.489   2.245
 5160OM     OM1 5160   6.052   0.702   2.223
 5161OM     OM1 5161   8.541   9.560   6.941
 5162OM     OM1 5162   8.628   0.044   7.186
 5163OM     OM1 5163   8.575   1.277   2.503
 5164OM     OM1 5164   8.359   1.127   2.561
 5165OM     OM1 5165   9.131   9.601   2.759
 5166OM     OM1 5166   9.264   9.428   2.626
 5167OM     OM1 5167   7.065   9.489   4.698
 5168OM     OM1 5168   6.984   9.402   4.939
 5169OM     OM1 5169   7.429   8.749   5.497
 5170OM     OM1 5170   7.230   8.695   5.669
 5171OM     OM1 5171   2.536   8.466   2.032
 5172OM     OM1 5172   2.221   1.359   3.141
 5173OM     OM1 5173   7.660   1.460   0.417
 5174OM     OM1 5174   7.457   1.307   0.479
 5175OM     OM1 5175   0.007   1.184   4.530
 5176OM     OM1 5176   0.159   0.961   4.502
 5177OM     OM1 5177   9.582   0.975   4.674
 5178OM     OM1 5178   0.192   1.141   4.694
 5179OM     OM1 5179   3.157   0.195   1.078
 5180OM     OM1 5180   3.349   0.112   0.911
 5181OM     OM1 5181   3.302   0.355   0.908
 5182OM     OM1 5182   1.426   8.410   2.533
 5183OM     OM1 5183   1.480   8.315   2.766
 5184OM     OM1 5184   1.273   8.483   2.734
 5185OM     OM1 5185   5.786   0.136   1.548
 5186OM     OM1 5186   5.549   0.244   1.513
 5187OM     OM1 5187   5.635   0.207   1.756
 5188OM     OM1 5188   5.376   8.308   3.994
 5189OM     OM1 5189   5.164   8.339   3.863
 5190OM     OM1 5190   7.923   0.205   5.835
 5191OM     OM1 5191   7.954   1.050   6.265
 5192OM     OM1 5192   8.048   1.012   6.016
 5193OM     OM1 5193   7.931   0.826   6.142
 5194OM     OM1 5194   1.603   8.731   0.602
 5195OM     OM1 5195   1.771   8.553   0.514
 5196OM     OM1 5196   1.850   8.752   0.662
 5197OM     OM1 5197   0.594   0.622   4.171
 5198OM     OM1 5198   0.788   0.529   4.021
 5199OM     OM1 5199   0.619   0.372   4.137
 5200OM     OM1 5200   0.992   0.543   2.983
 5201OM     OM1 5201   0.995   0.708   3.183
 5202OM     OM1 5202   1.220   0.594   3.101
 5203OM     OM1 5203   3.083   9.521   6.579
 5204OM     OM1 5204   2.962   9.356   6.432
 5205OM     OM1 5205   2.962   9.310   6.691
 5206OM     OM1 5206   4.791   0.564   9.286
 5207OM     OM1 5207   4.759   0.714   9.078
 5208OM     OM1 5208   4.604   0.626   9.449
 5209OM     OM1 5209   4.833   0.743   9.483
 5210OM     OM1 5210   2.023   9.103   2.119
 5211OM     OM1 5211   1.958   9.336   2.233
 5212OM     OM1 5212   1.876   9.098   2.326
 5213OM     OM1 5213   1.792   9.195   2.092
 5214OM     OM1 5214   6.423   8.634   0.479
 5215OM     OM1 5215   6.479   8.775   0.263
 5216OM     OM1 5216   6.483   8.510   0.259
 5217OM     OM1 5217   1.907   8.490   2.997
 5218OM     OM1 5218   1.978   8.391   3.228
 5219OM     OM1 5219   1.807   8.577   3.215
 5220OM     OM1 5220   1.733   8.342   3.141
 5221OM     OM1 5221   3.263   8.397   3.959
 5222OM     OM1 5222   7.575   8.647   6.176
 5223OM     OM1 5223   4.010   0.237   0.085
 5224OM     OM1 5224   4.131   0.424   9.576
 5225OM     OM1 5225   4.201   0.215   9.431
 5226OM     OM1 5226   4.379   0.319   9.578
 5227OM     OM1 5227   1.558   8.568   5.783
 5228OM     OM1 5228   1.354   8.709   5.882
 5229OM     OM1 5229   1.316   8.481   5.761
 5230OM     OM1 5230   1.445   8.481   5.992
 5231OM     OM1 5231   1.281   0.768   1.817
 5232OM     OM1 5232   1.279   0.499   1.527
 5233OM     OM1 5233   1.367   0.742   1.576
 5234OM     OM1 5234   8.629   8.245   8.707
 5235OM     OM1 5235   8.726   8.368   8.501
 5236OM     OM1 5236   1.748   1.028   1.763
 5237OM     OM1 5237   1.545   1.139   1.870
 5238OM     OM1 5238   2.928   0.374   7.538
 5239OM     OM1 5239   2.830   0.517   7.333
 5240OM     OM1 5240   2.843   0.150   7.435
 5241OM     OM1 5241   3.094   0.186   7.488
 5242OM     OM1 5242   7.763   9.578   2.139
 5243OM     OM1 5243   7.595   9.470   1.964
 5244OM     OM1 5244   7.543   0.095   2.075
 5245OM     OM1 5245   7.524   9.472   2.211
 5246OM     OM1 5246   5.462   8.615   1.548
 5247OM     OM1 5247   5.419   8.730   1.783
 5248OM     OM1 5248   5.586   8.841   1.620
 5249OM     OM1 5249   7.197   1.173   9.521
 5250OM     OM1 5250   7.312   1.110   0.142
 5251OM     OM1 5251   7.055   1.174   0.133
 5252OM     OM1 5252   9.173   0.476   7.148
 5253OM     OM1 5253   9.186   0.286   7.316
 5254OM     OM1 5254   9.383   0.378   7.466
 5255OM     OM1 5255   9.155   0.507   7.448
 5256OM     OM1 5256   3.162   1.298   4.315
 5257OM     OM1 5257   3.134   1.373   4.569
 5258OM     OM1 5258   0.089   8.425   5.690
 5259OM     OM1 5259   0.104   8.677   5.646
 5260OM     OM1 5260   8.888   1.087   0.591
 5261OM     OM1 5261   8.890   1.261   0.793
 5262OM     OM1 5262   7.023   8.730   1.314
 5263OM     OM1 5263   7.215   8.634   1.162
 5264OM     OM1 5264   7.054   8.817   1.069
 5265OM     OM1 5265   7.420   8.706   1.616
 5266OM     OM1 5266   7.151   8.708   1.555
 5267OM     OM1 5267   0.168   1.110   6.515
 5268OM     OM1 5268   0.096   1.342   6.615
 5269OM     OM1 5269   9.527   1.209   6.484
 5270OM     OM1 5270   0.134   1.306   6.351
 5271OM     OM1 5271   3.066   8.897   4.119
 5272OM     OM1 5272   3.207   8.969   4.336
 5273OM     OM1 5273   3.272   8.768   4.184
 5274OM     OM1 5274   1.691   9.188   0.646
 5275OM     OM1 5275   1.497   9.327   0.506
 5276OM     OM1 5276   1.460   9.088   0.582
 5277OM     OM1 5277   6.058   0.631   9.071
 5278OM     OM1 5278   6.166   0.417   9.155
 5279OM     OM1 5279   6.310   0.610   9.039
 5280OM     OM1 5280   6.215   0.645   9.285
 5281OM     OM1 5281   1.100   0.448   6.352
 5282OM     OM1 5282   0.973   0.523   6.567
 5283OM     OM1 5283   0.958   0.264   6.467
 5284OM     OM1 5284   0.841   0.463   6.360
 5285OM     OM1 5285   5.323   9.215   3.871
 5286OM     OM1 5286   5.344   9.355   4.091
 5287OM     OM1 5287   2.738   8.437   2.199
 5288OM     OM1 5288   2.774   8.385   1.955
 5289OM     OM1 5289   7.056   0.257   6.943
 5290OM     OM1 5290   7.101   0.476   7.087
 5291OM     OM1 5291   7.190   0.458   6.840
 5292OM     OM1 5292   5.757   0.203   6.493
 5293OM     OM1 5293   5.752   0.252   6.759
 5294OM     OM1 5294   5.968   0.298   6.611
 5295OM     OM1 5295   5.918   0.873   7.169
 5296OM     OM1 5296   5.850   1.090   7.290
 5297OM     OM1 5297   6.082   1.085   7.153
 5298OM     OM1 5298   3.813   8.458   6.259
 5299OM     OM1 5299   3.728   8.221   6.309
 5300OM     OM1 5300   0.233   9.128   4.655
 5301OM     OM1 5301   0.386   9.307   4.541
 5302OM     OM1 5302   0.148   9.295   4.456
 5303OM     OM1 5303   0.424   8.870   5.248
 5304OM     OM1 5304   0.618   8.912   5.418
 5305OM     OM1 5305   4.327   0.997   3.063
 5306OM     OM1 5306   4.572   0.894   3.012
 5307OM     OM1 5307   4.487   1.107   2.887
 5308OM     OM1 5308   6.359   9.189   7.730
 5309OM     OM1 5309   6.259   9.154   7.978
 5310OM     OM1 5310   6.125   9.090   7.757
 5311OM     OM1 5311   6.177   9.346   7.828
 5312OM     OM1 5312   8.120   8.739   0.170
 5313OM     OM1 5313   3.985   0.829   3.543
 5314OM     OM1 5314   4.180   0.741   3.702
 5315OM     OM1 5315   3.949   0.796   3.801
 5316OM     OM1 5316   3.967   0.587   3.662
 5317OM     OM1 5317   3.144   0.745   4.748
 5318OM     OM1 5318   3.011   0.951   4.663
 5319OM     OM1 5319   3.044   0.733   4.512
 5320OM     OM1 5320   3.241   0.892   4.551
 5321OM     OM1 5321   2.865   8.497   0.247
 5322OM     OM1 5322   2.676   8.456   0.416
 5323OM     OM1 5323   2.888   8.603   0.490
 5324OM     OM1 5324   7.320   1.341   1.027
 5325OM     OM1 5325   7.485   1.193   1.153
 5326OM     OM1 5326   4.292   8.855   5.212
 5327OM     OM1 5327   4.243   8.999   4.986
 5328OM     OM1 5328   4.388   9.092   5.178
 5329OM     OM1 5329   6.400   0.708   1.854
 5330OM     OM1 5330   3.993   0.534   6.741
 5331OM     OM1 5331   3.887   0.759   6.819
 5332OM     OM1 5332   4.029   0.606   6.989
 5333OM     OM1 5333   1.809   1.272   4.801
 5334OM     OM1 5334   1.682   1.066   4.856
 5335OM     OM1 5335   5.434   8.911   6.837
 5336OM     OM1 5336   5.427   9.263   6.782
 5337OM     OM1 5337   5.239   9.085   6.811
 5338OM     OM1 5338   5.331   8.973   6.607
 5339OM     OM1 5339   6.524   9.040   7.576
 5340OM     OM1 5340   6.545   9.300   7.572
 5341OM     OM1 5341   6.607   9.163   7.785
 5342OM     OM1 5342   9.572   9.376   5.931
 5343OM     OM1 5343   9.392   9.486   5.774
 5344OM     OM1 5344   3.786   8.256   4.421
 5345OM     OM1 5345   7.165   0.001   5.601
 5346OM     OM1 5346   7.010   0.212   5.667
 5347OM     OM1 5347   6.934   0.040   5.484
 5348OM     OM1 5348   2.594   8.425   8.355
 5349OM     OM1 5349   2.447   8.599   8.237
 5350OM     OM1 5350   2.509   8.623   8.495
 5351OM     OM1 5351   5.954   8.429   9.515
 5352OM     OM1 5352   3.637   1.421   1.240
 5353OM     OM1 5353   5.818   1.157   6.109
 5354OM     OM1 5354   2.307   8.568   6.619
 5355OM     OM1 5355   2.504   8.484   6.756
 5356OM     OM1 5356   8.636   1.373   6.311
 5357OM     OM1 5357   7.218   0.521   1.774
 5358OM     OM1 5358   7.438   0.630   1.891
 5359OM     OM1 5359   7.441   0.543   1.640
 5360OM     OM1 5360   7.315   0.754   1.708
 5361OM     OM1 5361   4.421   8.373   5.360
 5362OM     OM1 5362   4.604   8.479   5.205
 5363OM     OM1 5363   4.409   8.631   5.304
 5364OM     OM1 5364   6.158   9.498   8.610
 5365OM     OM1 5365   5.945   9.456   8.763
 5366OM     OM1 5366   7.643   0.998   6.672
 5367OM     OM1 5367   7.505   0.775   6.615
 5368OM     OM1 5368   7.750   0.790   6.570
 5369OM     OM1 5369   1.516   0.559   7.252
 5370OM     OM1 5370   1.383   0.793   7.234
 5371OM     OM1 5371   1.289   0.567   7.133
 5372OM     OM1 5372   9.428   0.389   8.581
 5373OM     OM1 5373   2.311   8.322   7.603
 5374OM     OM1 5374   2.058   8.336   7.507
 5375OM     OM1 5375   1.003   1.018   6.765
 5376OM     OM1 5376   0.987   0.769   6.687
 5377OM     OM1 5377   1.054   0.639   7.079
 5378OM     OM1 5378   0.863   0.802   7.158
 5379OM     OM1 5379   1.165   8.810   2.666
 5380OM     OM1 5380   1.281   8.895   2.466
 5381OM     OM1 5381   7.381   0.961   9.120
 5382OM     OM1 5382   4.252   8.767   5.463
 5383OM     OM1 5383   4.265   8.903   5.684
 5384OM     OM1 5384   4.339   8.659   5.686
 5385OM     OM1 5385   3.378   0.461   0.685
 5386OM     OM1 5386   3.366   0.613   0.897
 5387OM     OM1 5387   3.148   0.524   0.790
 5388OM     OM1 5388   6.427   0.902   7.370
 5389OM     OM1 5389   6.330   0.688   7.526
 5390OM     OM1 5390   6.564   0.767   7.547
 5391OM     OM1 5391   4.463   1.227   1.931
 5392OM     OM1 5392   4.593   1.252   2.157
 5393OM     OM1 5393   6.119   1.167   0.926
 5394OM     OM1 5394   6.247   1.292   1.108
 5395OM     OM1 5395   1.482   0.800   5.168
 5396OM     OM1 5396   1.513   0.573   5.076
 5397OM     OM1 5397   1.267   0.657   5.111
 5398OM     OM1 5398   1.402   0.771   4.927
 5399OM     OM1 5399   3.402   8.742   5.364
 5400OM     OM1 5400   3.666   8.677   5.434
 5401OM     OM1 5401   3.474   8.685   5.602
 5402OM     OM1 5402   3.552   8.907   5.470
 5403OM     OM1 5403   1.420   9.088   0.837
 5404OM     OM1 5404   1.227   9.166   0.679
 5405OM     OM1 5405   1.286   8.921   0.685
 5406OM     OM1 5406   8.787   8.695   3.303
 5407OM     OM1 5407   8.985   8.672   3.448
 5408OM     OM1 5408   8.924   8.910   3.380
 5409OM     OM1 5409   9.408   8.611   7.125
 5410OM     OM1 5410   0.057   8.538   7.152
 5411OM     OM1 5411   4.094   0.712   4.842
 5412OM     OM1 5412   4.215   0.506   4.741
 5413OM     OM1 5413   9.276   8.366   4.427
 5414OM     OM1 5414   9.116   8.389   4.224
 5415OM     OM1 5415   5.085   8.394   7.210
 5416OM     OM1 5416   5.091   8.410   7.486
 5417OM     OM1 5417   1.317   1.060   7.224
 5418OM     OM1 5418   1.322   0.911   7.020
 5419OM     OM1 5419   1.138   0.855   7.201
 5420OM     OM1 5420   0.803   9.251   6.102
 5421OM     OM1 5421   1.057   9.270   6.106
 5422OM     OM1 5422   0.926   9.342   5.888
 5423OM     OM1 5423   0.916   9.491   6.102
 5424OM     OM1 5424   1.182   8.501   6.184
 5425OM     OM1 5425   0.953   8.597   6.221
 5426OM     OM1 5426   1.146   8.659   6.395
 5427OM     OM1 5427   0.481   1.289   7.452
 5428OM     OM1 5428   0.587   1.348   7.230
 5429OM     OM1 5429   3.319   0.549   6.538
 5430OM     OM1 5430   3.484   0.379   6.428
 5431OM     OM1 5431   1.907   9.384   8.216
 5432OM     OM1 5432   1.720   9.406   8.054
 5433OM     OM1 5433   1.954   9.422   7.952
 5434OM     OM1 5434   5.133   8.619   8.541
 5435OM     OM1 5435   5.222   8.860   8.510
 5436OM     OM1 5436   4.977   8.823   8.598
 5437OM     OM1 5437   7.093   1.171   8.481
 5438OM     OM1 5438   6.860   1.036   8.505
 5439OM     OM1 5439   7.084   0.898   8.462
 5440OM     OM1 5440   6.594   1.192   8.790
 5441OM     OM1 5441   9.011   8.428   5.229
 5442OM     OM1 5442   9.093   8.452   4.978
 5443OM     OM1 5443   9.254   8.523   5.183
 5444OM     OM1 5444   4.295   8.367   2.373
 5445OM     OM1 5445   9.366   0.442   1.784
 5446OM     OM1 5446   9.418   0.503   1.543
 5447OM     OM1 5447   9.358   0.471   1.292
 5448OM     OM1 5448   3.048   1.203   4.735
 5449OM     OM1 5449   2.895   1.146   4.532
 5450OM     OM1 5450   0.595   8.709   8.043
 5451OM     OM1 5451   0.320   9.044   8.132
 5452OM     OM1 5452   0.529   9.157   8.251
 5453OM     OM1 5453   1.854   0.265   4.930
 5454OM     OM1 5454   2.078   0.137   4.880
 5455OM     OM1 5455   2.081   0.386   4.953
 5456OM     OM1 5456   2.739   0.461   2.037
 5457OM     OM1 5457   2.804   0.421   1.768
 5458OM     OM1 5458   2.987   0.487   1.938
 5459OM     OM1 5459   2.792   0.649   1.883
 5460OM     OM1 5460   2.241   1.367   7.825
 5461OM     OM1 5461   2.171   1.128   7.748
 5462OM     OM1 5462   2.279   1.285   7.585
 5463OM     OM1 5463   2.428   1.191   7.783
 5464OM     OM1 5464   0.989   9.223   0.987
 5465OM     OM1 5465   1.036   9.335   0.620
 5466OM     OM1 5466   0.986   9.111   0.752
 5467OM     OM1 5467   2.176   1.349   6.094
 5468OM     OM1 5468   2.154   1.242   6.333
 5469OM     OM1 5469   1.975   1.188   6.144
 5470OM     OM1 5470   6.692   9.205   6.400
 5471OM     OM1 5471   6.520   9.063   6.267
 5472OM     OM1 5472   4.487   1.349   0.839
 5473OM     OM1 5473   4.546   1.250   0.601
 5474OM     OM1 5474   1.257   8.671   8.831
 5475OM     OM1 5475   1.151   8.880   8.977
 5476OM     OM1 5476   0.415   8.807   9.052
 5477OM     OM1 5477   6.698   0.512   3.937
 5478OM     OM1 5478   6.888   0.331   3.948
 5479OM     OM1 5479   4.131   0.282   8.517
 5480OM     OM1 5480   4.353   0.295   8.383
 5481OM     OM1 5481   4.135   0.184   8.283
 5482OM     OM1 5482   4.277   0.058   8.452
 5483OM     OM1 5483   8.385   0.636   4.453
 5484OM     OM1 5484   8.237   0.594   4.656
 5485OM     OM1 5485   8.440   0.441   4.609
 5486OM     OM1 5486   8.408   8.400   4.754
 5487OM     OM1 5487   8.570   8.505   4.923
 5488OM     OM1 5488   4.732   9.019   1.084
 5489OM     OM1 5489   4.900   8.995   1.274
 5490OM     OM1 5490   4.771   8.780   1.187
 5491OM     OM1 5491   0.605   0.532   6.568
 5492OM     OM1 5492   0.658   0.633   6.322
 5493OM     OM1 5493   0.444   0.702   6.445
 5494OM     OM1 5494   0.140   0.335   9.295
 5495OM     OM1 5495   0.252   0.095   9.239
 5496OM     OM1 5496   7.040   1.078   4.447
 5497OM     OM1 5497   6.824   1.132   4.302
 5498OM     OM1 5498   7.054   1.246   4.260
 5499OM     OM1 5499   0.111   9.318   6.513
 5500OM     OM1 5500   0.176   9.283   6.760
 5501OM     OM1 5501   2.123   8.261   0.324
 5502OM     OM1 5502   2.169   8.466   0.493
 5503OM     OM1 5503   1.936   8.355   0.471
 5504OM     OM1 5504   1.542   1.249   0.016
 5505OM     OM1 5505   1.438   1.059   0.166
 5506OM     OM1 5506   1.627   1.208   0.258
 5507OM     OM1 5507   6.966   0.452   1.719
 5508OM     OM1 5508   7.133   0.293   1.843
 5509OM     OM1 5509   7.164   0.358   1.580
 5510OM     OM1 5510   4.721   0.262   0.913
 5511OM     OM1 5511   4.887   0.195   0.720
 5512OM     OM1 5512   5.773   0.614   4.164
 5513OM     OM1 5513   5.914   0.636   4.382
 5514OM     OM1 5514   5.757   0.435   4.351
 5515OM     OM1 5515   5.980   0.464   4.205
 5516OM     OM1 5516   2.409   1.127   0.563
 5517OM     OM1 5517   2.832   0.467   2.276
 5518OM     OM1 5518   2.862   0.318   2.483
 5519OM     OM1 5519   3.050   0.505   2.431
 5520OM     OM1 5520   2.758   9.046   6.405
 5521OM     OM1 5521   2.786   9.128   6.651
 5522OM     OM1 5522   2.837   8.878   6.573
 5523OM     OM1 5523   8.941   8.898   6.283
 5524OM     OM1 5524   8.869   8.938   6.534
 5525OM     OM1 5525   7.209   0.668   8.522
 5526OM     OM1 5526   2.153   1.200   3.330
 5527OM     OM1 5527   2.381   1.336   3.355
 5528OM     OM1 5528   5.268   0.485   4.233
 5529OM     OM1 5529   5.254   0.368   4.462
 5530OM     OM1 5530   5.067   0.324   4.265
 5531OM     OM1 5531   5.316   0.234   4.254
 5532OM     OM1 5532   5.936   0.729   1.379
 5533OM     OM1 5533   5.936   0.754   1.639
 5534OM     OM1 5534   5.712   0.736   1.516
 5535OM     OM1 5535   7.656   0.554   4.608
 5536OM     OM1 5536   7.520   0.706   4.776
 5537OM     OM1 5537   2.279   0.562   8.318
 5538OM     OM1 5538   2.261   0.677   8.546
 5539OM     OM1 5539   2.123   0.462   8.507
 5540OM     OM1 5540   3.251   1.392   6.435
 5541OM     OM1 5541   3.249   1.234   6.229
 5542OM     OM1 5542   5.988   8.322   0.533
 5543OM     OM1 5543   5.736   8.393   0.483
 5544OM     OM1 5544   8.591   8.904   8.402
 5545OM     OM1 5545   8.279   8.974   8.037
 5546OM     OM1 5546   8.517   8.710   8.241
 5547OM     OM1 5547   8.508   8.953   8.151
 5548OM     OM1 5548   3.830   9.332   7.000
 5549OM     OM1 5549   3.575   9.273   6.985
 5550OM     OM1 5550   3.811   8.824   6.943
 5551OM     OM1 5551   9.181   8.379   9.362
 5552OM     OM1 5552   9.443   8.387   9.352
 5553OM     OM1 5553   0.490   8.720   9.276
 5554OM     OM1 5554   0.732   8.806   9.191
 5555OM     OM1 5555   0.717   8.694   9.413
 5556OM     OM1 5556   0.599   8.929   9.380
 5557OM     OM1 5557   3.692   0.030   0.423
 5558OM     OM1 5558   3.800   9.534   0.636
 5559OM     OM1 5559   3.599   0.084   0.661
 5560OM     OM1 5560   4.730   8.630   2.434
 5561OM     OM1 5561   4.696   8.397   2.549
 5562OM     OM1 5562   6.978   8.992   7.461
 5563OM     OM1 5563   7.074   9.225   7.556
 5564OM     OM1 5564   6.969   9.224   7.327
 5565OM     OM1 5565   4.596   8.629   7.583
 5566OM     OM1 5566   4.562   8.440   7.401
 5567OM     OM1 5567   4.693   8.652   7.341
 5568OM     OM1 5568   4.278   9.112   0.661
 5569OM     OM1 5569   4.389   9.321   0.554
 5570OM     OM1 5570   4.362   9.098   0.414
 5571OM     OM1 5571   4.535   0.282   4.419
 5572OM     OM1 5572   0.493   8.358   8.018
 5573OM     OM1 5573   0.355   8.463   8.221
 5574OM     OM1 5574   9.090   8.952   0.866
 5575OM     OM1 5575   9.161   8.845   0.622
 5576OM     OM1 5576   9.200   9.090   0.683
 5577OM     OM1 5577   8.562   8.654   6.942
 5578OM     OM1 5578   8.622   8.396   6.947
 5579OM     OM1 5579   1.433   1.296   0.401
 5580OM     OM1 5580   1.906   1.235   0.597
 5581OM     OM1 5581   1.677   1.316   0.494
 5582OM     OM1 5582   1.418   1.087   5.878
 5583OM     OM1 5583   1.210   0.968   5.773
 5584OM     OM1 5584   1.324   0.857   5.974
 5585OM     OM1 5585   2.369   8.787   5.296
 5586OM     OM1 5586   2.559   8.963   5.270
 5587OM     OM1 5587   2.475   9.343   4.427
 5588OM     OM1 5588   2.466   9.234   4.199
 5589OM     OM1 5589   2.517   9.478   4.183
 5590OM     OM1 5590   2.695   9.334   4.295
 5591OM     OM1 5591   4.381   8.830   1.148
 5592OM     OM1 5592   4.346   8.579   1.155
 5593OM     OM1 5593   4.573   8.664   1.069
 5594OM     OM1 5594   0.630   0.404   4.633
 5595OM     OM1 5595   0.607   0.598   4.812
 5596OM     OM1 5596   0.846   0.533   4.715
 5597OM     OM1 5597   0.683   0.664   4.575
 5598OM     OM1 5598   3.712   9.120   0.335
 5599OM     OM1 5599   3.941   8.999   0.392
 5600OM     OM1 5600   0.846   8.962   4.076
 5601OM     OM1 5601   0.579   8.970   4.082
 5602OM     OM1 5602   8.754   8.738   5.826
 5603OM     OM1 5603   8.880   8.825   6.039
 5604OM     OM1 5604   8.659   8.699   6.066
 5605OM     OM1 5605   2.141   9.197   9.279
 5606OM     OM1 5606   1.963   8.999   9.343
 5607OM     OM1 5607   1.960   9.220   9.463
 5608OM     OM1 5608   2.161   9.059   9.500
 5609OM     OM1 5609   4.701   0.810   8.336
 5610OM     OM1 5610   4.533   0.969   8.469
 5611OM     OM1 5611   4.646   1.056   8.234
 5612OM     OM1 5612   7.237   9.299   0.156
 5613OM     OM1 5613   7.435   9.438   0.293
 5614OM     OM1 5614   7.272   9.263   0.400
 5615OM     OM1 5615   4.385   8.861   0.304
 5616OM     OM1 5616   4.558   8.952   0.482
 5617OM     OM1 5617   4.533   9.055   0.224
 5618OM     OM1 5618   7.994   8.755   6.883
 5619OM     OM1 5619   8.044   9.000   6.980
 5620OM     OM1 5620   8.098   8.776   7.110
 5621OM     OM1 5621   7.855   8.862   7.090
 5622OM     OM1 5622   7.866   9.489   7.018
 5623OM     OM1 5623   7.835   9.316   7.219
 5624OM     OM1 5624   8.050   9.461   7.199
 5625OM     OM1 5625   8.005   9.262   7.036
 5626OM     OM1 5626   8.601   9.178   5.088
 5627OM     OM1 5627   6.599   1.198   1.878
 5628OM     OM1 5628   6.788   1.026   1.797
 5629OM     OM1 5629   3.784   9.397   2.851
 5630OM     OM1 5630   3.544   1.107   3.060
 5631OM     OM1 5631   0.205   9.209   2.590
 5632OM     OM1 5632   0.302   8.896   2.225
 5633OM     OM1 5633   0.217   9.106   2.345
 5634OM     OM1 5634   0.340   9.336   2.411
 5635OM     OM1 5635   7.426   8.767   0.900
 5636OM     OM1 5636   7.379   8.530   0.998
 5637OM     OM1 5637   7.451   8.571   0.750
 5638OM     OM1 5638   7.206   8.628   0.834
 5639OM     OM1 5639   5.274   0.219   2.897
 5640OM     OM1 5640   5.246   0.400   3.105
 5641OM     OM1 5641   5.058   0.231   3.045
 5642OM     OM1 5642   7.664   0.658   7.235
 5643OM     OM1 5643   7.847   0.799   7.099
 5644OM     OM1 5644   7.672   0.923   7.237
 5645OM     OM1 5645   7.843   0.776   7.367
 5646OM     OM1 5646   1.781   8.654   9.112
 5647OM     OM1 5647   1.807   8.916   9.078
 5648OM     OM1 5648   1.775   8.814   9.311
 5649OM     OM1 5649   3.910   9.261   4.199
 5650OM     OM1 5650   3.770   9.264   4.415
 5651OM     OM1 5651   3.842   9.492   4.296
 5652OM     OM1 5652   4.028   9.356   4.412
 5653OM     OM1 5653   8.988   9.314   9.119
 5654OM     OM1 5654   9.132   9.240   9.311
 5655OM     OM1 5655   9.311   9.203   9.128
 5656OM     OM1 5656   2.137   9.341   1.056
 5657OM     OM1 5657   2.034   9.130   1.188
 5658OM     OM1 5658   2.194   9.295   1.305
 5659OM     OM1 5659   2.288   9.146   1.099
 5660OM     OM1 5660   1.109   1.025   5.369
 5661OM     OM1 5661   1.612   9.469   6.026
 5662OM     OM1 5662   1.647   9.394   6.260
 5663OM     OM1 5663   1.457   9.282   6.149
 5664OM     OM1 5664   0.311   8.667   6.674
 5665OM     OM1 5665   0.311   8.761   6.423
 5666OM     OM1 5666   0.311   8.505   6.468
 5667OM     OM1 5667   2.275   0.506   7.811
 5668OM     OM1 5668   2.254   0.493   8.068
 5669OM     OM1 5669   2.176   0.703   7.950
 5670OM     OM1 5670   4.243   8.657   0.163
 5671OM     OM1 5671   4.240   8.432   0.028
 5672OM     OM1 5672   4.021   8.549   0.082
 5673OM     OM1 5673   4.176   8.428   0.273
 5674OM     OM1 5674   0.154   9.413   2.726
 5675OM     OM1 5675   9.512   9.475   2.713
 5676OM     OM1 5676   0.070   0.010   2.865
 5677OM     OM1 5677   0.083   0.031   2.604
 5678OM     OM1 5678   1.991   0.209   1.011
 5679OM     OM1 5679   2.082   9.575   0.966
 5680OM     OM1 5680   2.058   0.058   1.212
 5681OM     OM1 5681   1.854   0.149   0.249
 5682OM     OM1 5682   1.972   0.222   0.031
 5683OM     OM1 5683   2.037   9.533   5.565
 5684OM     OM1 5684   2.166   9.475   5.346
 5685OM     OM1 5685   2.243   0.072   5.498
 5686OM     OM1 5686   7.330   0.661   1.241
 5687OM     OM1 5687   7.579   0.663   1.156
 5688OM     OM1 5688   7.469   0.875   1.283
 5689OM     OM1 5689   2.786   9.264   6.872
 5690OM     OM1 5690   2.962   9.074   6.829
 5691OM     OM1 5691   1.526   0.425   5.300
 5692OM     OM1 5692   1.414   0.347   5.091
 5693OM     OM1 5693   1.683   0.386   5.086
 5694OM     OM1 5694   4.047   1.063   8.974
 5695OM     OM1 5695   4.128   0.917   8.766
 5696OM     OM1 5696   1.250   9.588   2.272
 5697OM     OM1 5697   1.370   0.128   2.455
 5698OM     OM1 5698   1.423   0.149   2.201
 5699OM     OM1 5699   1.189   0.239   2.291
 5700OM     OM1 5700   3.166   0.840   4.986
 5701OM     OM1 5701   2.954   0.710   4.916
 5702OM     OM1 5702   3.179   0.571   4.942
 5703OM     OM1 5703   6.385   8.875   0.553
 5704OM     OM1 5704   6.532   8.722   0.705
 5705OM     OM1 5705   6.274   8.690   0.695
 5706OM     OM1 5706   5.431   0.926   0.363
 5707OM     OM1 5707   5.717   0.658   0.615
 5708OM     OM1 5708   5.664   0.846   0.437
 5709OM     OM1 5709   1.695   1.199   5.722
 5710OM     OM1 5710   1.841   1.127   5.522
 5711OM     OM1 5711   3.778   8.867   3.740
 5712OM     OM1 5712   3.723   9.120   3.758
 5713OM     OM1 5713   7.721   8.566   5.377
 5714OM     OM1 5714   7.768   8.426   5.599
 5715OM     OM1 5715   1.916   8.431   7.987
 5716OM     OM1 5716   1.782   8.485   8.201
 5717OM     OM1 5717   2.022   8.370   8.205
 5718OM     OM1 5718   2.195   0.238   6.262
 5719OM     OM1 5719   2.234   0.381   6.477
 5720OM     OM1 5720   2.169   0.493   6.247
 5721OM     OM1 5721   2.402   0.390   6.274
 5722OM     OM1 5722   1.755   0.449   8.687
 5723OM     OM1 5723   1.860   0.494   8.920
 5724OM     OM1 5724   2.010   0.389   8.731
 5725OM     OM1 5725   7.877   1.098   6.685
 5726OM     OM1 5726   8.025   1.181   6.479
 5727OM     OM1 5727   7.774   1.246   6.497
 5728OM     OM1 5728   0.963   8.728   2.262
 5729OM     OM1 5729   0.917   8.978   2.180
 5730OM     OM1 5730   0.763   8.874   2.354
 5731OM     OM1 5731   9.504   9.270   6.371
 5732OM     OM1 5732   9.517   9.025   6.269
 5733OM     OM1 5733   3.040   0.683   6.983
 5734OM     OM1 5734   3.176   0.789   7.179
 5735OM     OM1 5735   5.419   8.325   2.090
 5736OM     OM1 5736   5.385   8.270   1.828
 5737OM     OM1 5737   0.648   8.320   8.639
 5738OM     OM1 5738   2.336   0.549   4.619
 5739OM     OM1 5739   2.171   0.694   4.470
 5740OM     OM1 5740   2.341   0.529   4.358
 5741OM     OM1 5741   2.136   0.437   4.500
 5742OM     OM1 5742   4.966   0.619   2.477
 5743OM     OM1 5743   4.866   0.391   2.410
 5744OM     OM1 5744   5.241   0.627   2.481
 5745OM     OM1 5745   5.575   0.000   1.625
 5746OM     OM1 5746   5.420   9.396   1.570
 5747OM     OM1 5747   4.542   8.527   5.798
 5748OM     OM1 5748   4.511   8.781   5.827
 5749OM     OM1 5749   8.570   0.042   3.069
 5750OM     OM1 5750   8.478   9.409   3.115
 5751OM     OM1 5751   6.739   8.512   3.460
 5752OM     OM1 5752   6.958   8.369   3.411
 5753OM     OM1 5753   8.135   0.296   8.049
 5754OM     OM1 5754   8.075   0.137   8.252
 5755OM     OM1 5755   7.890   0.183   8.084
 5756OM     OM1 5756   9.069   9.586   3.319
 5757OM     OM1 5757   9.101   9.385   3.484
 5758OM     OM1 5758   9.099   0.027   3.562
 5759OM     OM1 5759   6.649   8.508   7.903
 5760OM     OM1 5760   6.879   8.521   7.803
 5761OM     OM1 5761   5.129   8.560   0.673
 5762OM     OM1 5762   5.210   8.340   0.557
 5763OM     OM1 5763   4.952   8.365   0.648
 5764OM     OM1 5764   5.038   8.758   0.556
 5765OM     OM1 5765   6.769   0.905   7.572
 5766OM     OM1 5766   6.994   0.850   7.461
 5767OM     OM1 5767   8.163   9.517   3.033
 5768OM     OM1 5768   8.019   9.318   3.100
 5769OM     OM1 5769   8.098   9.472   3.292
 5770OM     OM1 5770   8.263   9.306   3.167
 5771OM     OM1 5771   2.936   8.978   9.473
 5772OM     OM1 5772   2.432   8.518   7.500
 5773OM     OM1 5773   2.285   8.687   7.373
 5774OM     OM1 5774   8.156   8.416   4.714
 5775OM     OM1 5775   8.135   8.428   4.973
 5776OM     OM1 5776   7.921   8.418   4.815
 5777OM     OM1 5777   8.104   0.289   0.512
 5778OM     OM1 5778   8.021   0.064   0.633
 5779OM     OM1 5779   8.243   0.070   0.487
 5780OM     OM1 5780   0.213   0.251   2.564
 5781OM     OM1 5781   0.041   0.169   2.387
 5782OM     OM1 5782   9.562   0.253   2.626
 5783OM     OM1 5783   3.565   0.093   8.108
 5784OM     OM1 5784   3.719   0.296   8.068
 5785OM     OM1 5785   3.608   0.265   8.304
 5786OM     OM1 5786   6.262   8.618   8.137
 5787OM     OM1 5787   4.352   0.740   3.229
 5788OM     OM1 5788   4.595   0.649   3.280
 5789OM     OM1 5789   4.387   0.570   3.418
 5790OM     OM1 5790   4.477   0.814   3.451
 5791OM     OM1 5791   4.008   0.763   5.668
 5792OM     OM1 5792   3.920   0.935   5.845
 5793OM     OM1 5793   3.710   0.826   5.937
 5794OM     OM1 5794   7.012   0.993   2.643
 5795OM     OM1 5795   6.887   0.619   2.566
 5796OM     OM1 5796   7.083   0.528   2.714
 5797OM     OM1 5797   6.982   0.767   2.757
 5798OM     OM1 5798   0.312   8.779   5.027
 5799OM     OM1 5799   0.245   8.899   4.800
 5800OM     OM1 5800   0.300   8.644   4.799
 5801OM     OM1 5801   0.490   8.818   4.842
 5802OM     OM1 5802   8.480   0.535   0.980
 5803OM     OM1 5803   7.324   9.171   0.800
 5804OM     OM1 5804   7.219   8.980   0.938
 5805OM     OM1 5805   7.485   9.009   0.919
 5806OM     OM1 5806   4.753   0.485   3.131
 5807OM     OM1 5807   4.686   0.446   2.875
 5808OM     OM1 5808   4.563   0.332   3.079
 5809OM     OM1 5809   4.806   0.254   3.009
 5810OM     OM1 5810   9.348   8.642   8.595
 5811OM     OM1 5811   9.584   8.638   8.483
 5812OM     OM1 5812   4.040   0.493   4.140
 5813OM     OM1 5813   3.925   0.719   4.055
 5814OM     OM1 5814   3.802   0.560   4.220
 5815OM     OM1 5815   7.056   8.573   8.006
 5816OM     OM1 5816   7.094   8.640   8.271
 5817OM     OM1 5817   7.024   8.811   8.103
 5818OM     OM1 5818   5.358   0.330   7.256
 5819OM     OM1 5819   5.207   0.225   7.436
 5820OM     OM1 5820   3.748   9.017   0.562
 5821OM     OM1 5821   4.126   8.871   0.248
 5822OM     OM1 5822   1.303   0.792   4.094
 5823OM     OM1 5823   1.285   0.607   4.277
 5824OM     OM1 5824   6.571   9.081   1.005
 5825OM     OM1 5825   6.796   9.212   1.027
 5826OM     OM1 5826   7.015   9.083   1.051
 5827OM     OM1 5827   6.934   9.227   1.255
 5828OM     OM1 5828   0.546   1.124   5.689
 5829OM     OM1 5829   0.372   1.304   5.643
 5830OM     OM1 5830   9.018   1.326   4.700
 5831OM     OM1 5831   8.001   0.529   0.508
 5832OM     OM1 5832   3.900   1.103   7.541
 5833OM     OM1 5833   3.741   1.291   7.628
 5834OM     OM1 5834   3.981   1.291   7.711
 5835OM     OM1 5835   5.485   9.325   5.666
 5836OM     OM1 5836   5.493   9.262   5.916
 5837OM     OM1 5837   5.477   9.034   6.055
 5838OM     OM1 5838   5.681   9.182   6.083
 5839OM     OM1 5839   1.336   1.286   3.468
 5840OM     OM1 5840   1.457   1.283   3.698
 5841OM     OM1 5841   1.215   1.185   3.676
 5842OM     OM1 5842   1.396   1.065   3.547
 5843OM     OM1 5843   5.619   1.106   0.404
 5844OM     OM1 5844   5.857   0.883   0.599
 5845OM     OM1 5845   6.172   8.296   3.862
 5846OM     OM1 5846   6.411   8.257   3.734
 5847OM     OM1 5847   7.674   8.576   0.609
 5848OM     OM1 5848   7.642   8.400   0.806
 5849OM     OM1 5849   7.509   8.377   0.597
 5850OM     OM1 5850   6.489   0.324   9.208
 5851OM     OM1 5851   6.554   0.247   9.449
 5852OM     OM1 5852   6.342   0.390   9.419
 5853OM     OM1 5853   7.092   0.294   5.892
 5854OM     OM1 5854   8.839   1.159   3.426
 5855OM     OM1 5855   9.007   0.973   3.484
 5856OM     OM1 5856   8.974   1.177   3.655
 5857OM     OM1 5857   8.789   0.998   3.632
 5858OM     OM1 5858   7.495   0.238   0.118
 5859OM     OM1 5859   7.248   0.282   0.066
 5860OM     OM1 5860   2.856   8.442   8.821
 5861OM     OM1 5861   2.811   8.674   8.915
 5862OM     OM1 5862   5.962   8.686   2.841
 5863OM     OM1 5863   5.824   9.122   2.893
 5864OM     OM1 5864   5.818   8.899   2.794
 5865OM     OM1 5865   1.609   8.625   4.926
 5866OM     OM1 5866   1.389   8.562   5.059
 5867OM     OM1 5867   1.462   8.810   5.029
 5868OM     OM1 5868   0.776   0.076   6.458
 5869OM     OM1 5869   0.940   0.108   6.249
 5870OM     OM1 5870   3.912   0.880   2.789
 5871OM     OM1 5871   3.714   1.024   2.883
 5872OM     OM1 5872   3.694   0.761   2.886
 5873OM     OM1 5873   6.097   0.349   5.920
 5874OM     OM1 5874   6.179   0.401   6.170
 5875OM     OM1 5875   6.112   0.159   6.098
 5876OM     OM1 5876   2.063   9.523   7.497
 5877OM     OM1 5877   1.919   0.070   7.640
 5878OM     OM1 5878   2.096   9.521   7.763
 5879OM     OM1 5879   2.184   0.110   7.619
 5880OM     OM1 5880   5.645   8.963   7.710
 5881OM     OM1 5881   5.635   9.049   7.944
 5882OM     OM1 5882   5.748   9.202   7.754
 5883OM     OM1 5883   5.861   8.977   7.865
 5884OM     OM1 5884   2.306   0.826   1.500
 5885OM     OM1 5885   2.364   0.564   1.474
 5886OM     OM1 5886   2.362   0.676   1.713
 5887OM     OM1 5887   2.109   8.645   3.060
 5888OM     OM1 5888   2.025   8.623   2.804
 5889OM     OM1 5889   1.819   9.582   3.827
 5890OM     OM1 5890   1.936   0.162   3.976
 5891OM     OM1 5891   1.817   0.222   3.747
 5892OM     OM1 5892   1.205   1.070   9.482
 5893OM     OM1 5893   1.137   1.076   9.238
 5894OM     OM1 5894   1.395   1.108   9.300
 5895OM     OM1 5895   5.154   9.115   5.664
 5896OM     OM1 5896   5.176   8.965   5.452
 5897OM     OM1 5897   5.002   9.154   5.449
 5898OM     OM1 5898   6.574   1.047   5.539
 5899OM     OM1 5899   6.749   0.869   5.607
 5900OM     OM1 5900   6.574   0.931   5.783
 5901OM     OM1 5901   3.239   0.287   5.838
 5902OM     OM1 5902   3.234   0.065   5.708
 5903OM     OM1 5903   3.471   0.169   5.773
 5904OM     OM1 5904   9.290   8.870   3.939
 5905OM     OM1 5905   9.175   8.963   3.721
 5906OM     OM1 5906   9.027   8.843   3.894
 5907OM     OM1 5907   9.193   8.698   3.763
 5908OM     OM1 5908   0.465   8.896   0.106
 5909OM     OM1 5909   0.280   8.894   9.520
 5910OM     OM1 5910   0.290   9.090   0.077
 5911OM     OM1 5911   2.242   9.313   5.136
 5912OM     OM1 5912   2.426   9.121   5.114
 5913OM     OM1 5913   2.374   9.254   4.908
 5914OM     OM1 5914   2.224   8.705   4.072
 5915OM     OM1 5915   2.129   8.931   4.017
 5916OM     OM1 5916   2.109   8.735   3.838
 5917OM     OM1 5917   5.564   8.880   8.790
 5918OM     OM1 5918   5.726   9.006   8.941
 5919OM     OM1 5919   3.924   1.412   4.761
 5920OM     OM1 5920   6.622   9.595   0.926
 5921OM     OM1 5921   6.598   9.329   0.911
 5922OM     OM1 5922   6.553   9.451   1.136
 5923OM     OM1 5923   3.023   9.513   5.300
 5924OM     OM1 5924   3.199   0.081   5.363
 5925OM     OM1 5925   3.120   9.514   5.542
 5926OM     OM1 5926   0.887   0.525   7.625
 5927OM     OM1 5927   1.199   0.659   7.626
 5928OM     OM1 5928   1.835   1.013   6.280
 5929OM     OM1 5929   2.073   0.961   6.199
 5930OM     OM1 5930   9.522   0.413   2.129
 5931OM     OM1 5931   9.428   0.257   1.950
 5932OM     OM1 5932   9.501   0.154   2.177
 5933OM     OM1 5933   9.288   0.299   2.173
 5934OM     OM1 5934   1.555   0.704   5.405
 5935OM     OM1 5935   8.485   9.204   7.130
 5936OM     OM1 5936   8.285   9.360   7.205
 5937OM     OM1 5937   9.194   9.105   4.383
 5938OM     OM1 5938   9.305   8.976   4.177
 5939OM     OM1 5939   1.515   0.881   8.622
 5940OM     OM1 5940   1.573   1.119   8.679
 5941OM     OM1 5941   1.769   0.946   8.616
 5942OM     OM1 5942   1.616   1.030   8.433
 5943OM     OM1 5943   5.197   0.373   2.083
 5944OM     OM1 5944   5.377   0.418   2.268
 5945OM     OM1 5945   5.112   0.396   2.312
 5946OM     OM1 5946   0.481   0.831   8.570
 5947OM     OM1 5947   0.438   0.609   8.442
 5948OM     OM1 5948   0.241   0.785   8.468
 5949OM     OM1 5949   1.389   0.403   7.644
 5950OM     OM1 5950   1.418   0.386   7.901
 5951OM     OM1 5951   1.618   0.453   7.740
 5952OM     OM1 5952   1.412   0.619   7.775
 5953OM     OM1 5953   4.763   0.250   9.464
 5954OM     OM1 5954   4.896   0.318   0.079
 5955OM     OM1 5955   4.799   0.492   9.540
 5956OM     OM1 5956   4.629   0.340   0.061
 5957OM     OM1 5957   7.968   9.465   0.294
 5958OM     OM1 5958   7.887   0.092   0.348
 5959OM     OM1 5959   7.854   9.507   0.522
 5960OM     OM1 5960   7.700   9.508   0.319
 5961OM     OM1 5961   3.485   1.120   5.876
 5962OM     OM1 5962   3.396   0.960   5.693
 5963OM     OM1 5963   2.588   1.112   6.859
 5964OM     OM1 5964   2.704   1.196   7.161
 5965OM     OM1 5965   2.760   1.287   6.932
 5966OM     OM1 5966   3.897   0.193   1.638
 5967OM     OM1 5967   4.055   0.405   1.649
 5968OM     OM1 5968   8.084   1.067   3.912
 5969OM     OM1 5969   8.212   1.182   3.703
 5970OM     OM1 5970   3.401   8.696   4.669
 5971OM     OM1 5971   3.531   8.813   4.467
 5972OM     OM1 5972   3.325   8.669   4.415
 5973OM     OM1 5973   3.445   8.898   4.802
 5974OM     OM1 5974   5.592   1.411   9.026
 5975OM     OM1 5975   5.821   1.314   9.107
 5976OM     OM1 5976   3.561   0.782   5.599
 5977OM     OM1 5977   3.790   0.901   5.627
 5978OM     OM1 5978   4.680   0.864   4.764
 5979OM     OM1 5979   4.787   1.064   5.167
 5980OM     OM1 5980   4.826   1.013   4.911
 5981OM     OM1 5981   4.616   1.118   4.802
 5982OM     OM1 5982   1.820   1.079   8.908
 5983OM     OM1 5983   1.963   0.942   9.085
 5984OM     OM1 5984   3.560   0.454   4.199
 5985OM     OM1 5985   3.727   0.356   4.368
 5986OM     OM1 5986   3.634   0.602   4.411
 5987OM     OM1 5987   6.700   8.999   3.662
 5988OM     OM1 5988   6.739   9.067   3.908
 5989OM     OM1 5989   7.040   0.630   7.611
 5990OM     OM1 5990   7.137   0.449   7.764
 5991OM     OM1 5991   6.152   1.190   2.945
 5992OM     OM1 5992   6.377   1.141   3.071
 5993OM     OM1 5993   1.237   9.134   5.609
 5994OM     OM1 5994   1.106   8.922   5.535
 5995OM     OM1 5995   1.364   8.948   5.481
 5996OM     OM1 5996   1.294   8.906   5.726
 5997OM     OM1 5997   5.776   1.425   3.271
 5998OM     OM1 5998   5.837   1.431   3.013
 5999OM     OM1 5999   4.824   0.233   6.816
 6000OM     OM1 6000   2.641   1.347   3.422
 6001OM     OM1 6001   2.461   1.296   3.598
 6002OM     OM1 6002   5.855   9.034   0.826
 6003OM     OM1 6003   5.642   9.132   0.943
 6004OM     OM1 6004   5.648   9.109   0.687
 6005OM     OM1 6005   3.952   8.428   7.087
 6006OM     OM1 6006   3.932   8.440   6.821
 6007OM     OM1 6007   4.921   9.455   3.311
 6008OM     OM1 6008   4.942   0.070   3.455
 6009OM     OM1 6009   4.886   0.099   3.205
 6010OM     OM1 6010   5.115   0.016   3.266
 6011OM     OM1 6011   9.373   9.508   4.174
 6012OM     OM1 6012   9.340   9.562   3.924
 6013OM     OM1 6013   8.421   8.435   9.472
 6014OM     OM1 6014   8.674   8.438   9.399
 6015OM     OM1 6015   8.503   8.610   9.303
 6016OM     OM1 6016   5.286   0.801   4.688
 6017OM     OM1 6017   5.290   0.771   4.422
 6018OM     OM1 6018   5.353   0.571   4.584
 6019OM     OM1 6019   5.106   0.656   4.555
 6020OM     OM1 6020   6.948   9.023   8.662
 6021OM     OM1 6021   7.136   9.186   8.749
 6022OM     OM1 6022   2.614   9.523   2.373
 6023OM     OM1 6023   2.512   9.553   2.606
 6024OM     OM1 6024   2.728   0.084   2.531
 6025OM     OM1 6025   2.731   9.417   2.573
 6026OM     OM1 6026   4.262   8.258   5.531
 6027OM     OM1 6027   4.362   8.367   5.741
 6028OM     OM1 6028   4.309   1.002   0.969
 6029OM     OM1 6029   4.193   0.776   0.926
 6030OM     OM1 6030   4.431   0.829   0.821
 6031OM     OM1 6031   7.405   1.294   3.657
 6032OM     OM1 6032   7.586   1.268   3.818
 6033OM     OM1 6033   2.693   0.609   2.770
 6034OM     OM1 6034   2.905   0.669   2.646
 6035OM     OM1 6035   3.303   9.282   5.684
 6036OM     OM1 6036   3.546   9.361   5.740
 6037OM     OM1 6037   3.511   9.145   5.595
 6038OM     OM1 6038   4.904   8.278   8.413
 6039OM     OM1 6039   6.995   8.602   9.371
 6040OM     OM1 6040   6.963   8.813   9.511
 6041OM     OM1 6041   7.056   8.844   9.275
 6042OM     OM1 6042   6.812   8.781   9.292
 6043OM     OM1 6043   4.985   0.067   1.290
 6044OM     OM1 6044   4.801   9.473   1.319
 6045OM     OM1 6045   4.836   0.041   1.499
 6046OM     OM1 6046   4.729   0.109   1.260
 6047OM     OM1 6047   4.763   0.286   6.040
 6048OM     OM1 6048   4.831   0.120   5.862
 6049OM     OM1 6049   4.720   0.351   5.798
 6050OM     OM1 6050   1.503   9.147   9.496
 6051OM     OM1 6051   4.383   1.241   1.053
 6052OM     OM1 6052   6.681   0.851   6.020
 6053OM     OM1 6053   6.782   0.900   6.262
 6054OM     OM1 6054   6.932   0.903   6.048
 6055OM     OM1 6055   6.627   8.657   8.607
 6056OM     OM1 6056   6.769   8.460   8.634
 6057OM     OM1 6057   6.528   8.428   8.709
 6058OM     OM1 6058   0.977   9.511   7.274
 6059OM     OM1 6059   0.969   9.407   7.513
 6060OM     OM1 6060   0.757   9.395   7.353
 6061OM     OM1 6061   2.455   0.089   9.355
 6062OM     OM1 6062   3.824   0.499   8.179
 6063OM     OM1 6063   4.005   0.666   8.248
 6064OM     OM1 6064   3.967   0.456   8.399
 6065OM     OM1 6065   7.482   9.190   7.694
 6066OM     OM1 6066   7.496   9.118   7.941
 6067OM     OM1 6067   7.583   9.356   7.866
 6068OM     OM1 6068   7.072   0.056   5.165
 6069OM     OM1 6069   7.216   9.535   5.363
 6070OM     OM1 6070   4.550   8.570   7.842
 6071OM     OM1 6071   4.351   8.576   7.995
 6072OM     OM1 6072   4.571   8.714   8.052
 6073OM     OM1 6073   4.566   8.456   8.083
 6074OM     OM1 6074   6.278   9.070   2.691
 6075OM     OM1 6075   6.063   9.049   2.816
 6076OM     OM1 6076   7.086   0.946   3.175
 6077OM     OM1 6077   6.851   1.029   3.226
 6078OM     OM1 6078   6.975   0.895   3.422
 6079OM     OM1 6079   2.686   1.161   6.402
 6080OM     OM1 6080   2.910   1.188   6.558
 6081OM     OM1 6081   0.357   0.625   4.873
 6082OM     OM1 6082   0.526   0.809   4.954
 6083OM     OM1 6083   0.535   0.561   5.053
 6084OM     OM1 6084   0.404   0.120   2.685
 6085OM     OM1 6085   0.651   0.044   2.705
 6086OM     OM1 6086   0.474   9.533   2.531
 6087OM     OM1 6087   0.477   9.486   2.786
 6088OM     OM1 6088   4.756   1.282   9.244
 6089OM     OM1 6089   4.919   1.295   9.018
 6090OM     OM1 6090   9.489   9.040   2.799
 6091OM     OM1 6091   0.031   8.973   3.000
 6092OM     OM1 6092   0.098   9.177   2.832
 6093OM     OM1 6093   0.129   8.935   2.765
 6094OM     OM1 6094   3.195   9.247   8.691
 6095OM     OM1 6095   3.452   9.173   8.714
 6096OM     OM1 6096   3.310   9.088   8.520
 6097OM     OM1 6097   2.368   8.606   1.421
 6098OM     OM1 6098   2.212   8.779   1.296
 6099OM     OM1 6099   6.944   1.297   9.101
 6100OM     OM1 6100   6.776   1.291   9.307
 6101OM     OM1 6101   7.031   1.261   9.339
 6102OM     OM1 6102   5.660   9.371   0.686
 6103OM     OM1 6103   5.714   9.252   0.472
 6104OM     OM1 6104   2.843   9.329   5.271
 6105OM     OM1 6105   2.605   9.221   5.276
 6106OM     OM1 6106   2.794   9.111   5.402
 6107OM     OM1 6107   2.713   9.344   5.493
 6108OM     OM1 6108   0.336   8.312   2.902
 6109OM     OM1 6109   0.245   8.494   3.063
 6110OM     OM1 6110   0.472   8.369   3.117
 6111OM     OM1 6111   8.088   0.313   1.987
 6112OM     OM1 6112   8.497   0.456   2.225
 6113OM     OM1 6113   8.296   0.463   2.062
 6114OM     OM1 6114   8.528   0.757   5.255
 6115OM     OM1 6115   8.687   0.542   5.581
 6116OM     OM1 6116   7.784   8.293   7.787
 6117OM     OM1 6117   7.590   8.425   7.918
 6118OM     OM1 6118   3.643   9.448   4.839
 6119OM     OM1 6119   3.219   0.838   1.703
 6120OM     OM1 6120   3.391   0.912   1.520
 6121OM     OM1 6121   3.478   0.828   1.748
 6122OM     OM1 6122   1.465   1.214   1.634
 6123OM     OM1 6123   1.484   1.211   1.375
 6124OM     OM1 6124   3.940   1.000   6.853
 6125OM     OM1 6125   3.935   1.065   6.608
 6126OM     OM1 6126   4.011   1.237   6.785
 6127OM     OM1 6127   4.165   1.034   6.706
 6128OM     OM1 6128   9.593   9.459   3.057
 6129OM     OM1 6129   4.664   0.961   6.807
 6130OM     OM1 6130   4.807   1.189   6.873
 6131OM     OM1 6131   4.558   1.186   6.866
 6132OM     OM1 6132   1.028   9.211   9.375
 6133OM     OM1 6133   0.893   9.369   9.217
 6134OM     OM1 6134   1.147   9.346   9.182
 6135OM     OM1 6135   0.948   8.949   9.118
 6136OM     OM1 6136   0.810   9.074   9.431
 6137OM     OM1 6137   5.441   0.656   8.595
 6138OM     OM1 6138   5.302   0.853   8.680
 6139OM     OM1 6139   5.397   0.680   8.853
 6140OM     OM1 6140   5.202   0.612   8.693
 6141OM     OM1 6141   6.106   0.706   1.176
 6142OM     OM1 6142   6.180   0.652   1.413
 6143OM     OM1 6143   6.004   0.488   1.300
 6144OM     OM1 6144   6.735   8.507   5.146
 6145OM     OM1 6145   4.064   8.459   8.510
 6146OM     OM1 6146   4.155   8.687   8.423
 6147OM     OM1 6147   4.325   8.494   8.441
 6148OM     OM1 6148   8.325   1.262   7.634
 6149OM     OM1 6149   8.200   1.220   7.419
 6150OM     OM1 6150   7.485   1.181   6.974
 6151OM     OM1 6151   7.415   1.214   6.727
 6152OM     OM1 6152   7.235   1.170   6.918
 6153OM     OM1 6153   7.385   0.976   6.854
 6154OM     OM1 6154   0.411   8.927   6.243
 6155OM     OM1 6155   8.075   9.496   9.324
 6156OM     OM1 6156   7.878   9.336   9.326
 6157OM     OM1 6157   8.095   9.258   9.193
 6158OM     OM1 6158   6.876   0.146   4.399
 6159OM     OM1 6159   6.673   9.587   4.345
 6160OM     OM1 6160   8.669   9.181   0.152
 6161OM     OM1 6161   8.720   9.217   9.472
 6162OM     OM1 6162   8.938   9.135   9.562
 6163OM     OM1 6163   4.576   8.447   3.437
 6164OM     OM1 6164   4.317   8.490   3.416
 6165OM     OM1 6165   0.895   8.977   0.965
 6166OM     OM1 6166   0.764   9.178   0.870
 6167OM     OM1 6167   4.619   0.832   9.300
 6168OM     OM1 6168   4.393   0.994   0.071
 6169OM     OM1 6169   4.211   0.831   9.564
 6170OM     OM1 6170   4.443   0.836   9.473
 6171OM     OM1 6171   3.910   8.695   9.498
 6172OM     OM1 6172   3.843   8.440   9.521
 6173OM     OM1 6173   4.755   8.321   8.202
 6174OM     OM1 6174   5.004   8.430   8.230
 6175OM     OM1 6175   1.242   0.399   9.569
 6176OM     OM1 6176   1.243   9.602   9.531
 6177OM     OM1 6177   1.436   0.003   0.112
 6178OM     OM1 6178   1.069   0.427   0.132
 6179OM     OM1 6179   8.812   8.713   7.319
 6180OM     OM1 6180   8.980   8.751   7.508
 6181OM     OM1 6181   3.983   9.329   3.461
 6182OM     OM1 6182   4.194   9.198   3.524
 6183OM     OM1 6183   4.043   9.094   3.341
 6184OM     OM1 6184   4.176   9.311   3.284
 6185OM     OM1 6185   9.156   1.207   4.383
 6186OM     OM1 6186   9.365   1.261   4.528
 6187OM     OM1 6187   9.319   1.385   4.298
 6188OM     OM1 6188   4.781   0.382   4.670
 6189OM     OM1 6189   4.844   0.624   4.601
 6190OM     OM1 6190   4.654   0.599   4.766
 6191OM     OM1 6191   4.612   0.510   4.525
 6192OM     OM1 6192   8.771   8.416   8.858
 6193OM     OM1 6193   7.392   8.988   4.709
 6194OM     OM1 6194   7.580   8.920   4.864
 6195OM     OM1 6195   7.327   8.856   4.927
 6196OM     OM1 6196   7.402   9.098   4.953
 6197OM     OM1 6197   0.217   8.257   2.675
 6198OM     OM1 6198   0.137   8.429   2.496
 6199OM     OM1 6199   9.568   8.428   5.924
 6200OM     OM1 6200   0.015   8.566   7.538
 6201OM     OM1 6201   0.178   8.377   7.603
 6202OM     OM1 6202   0.072   8.562   7.778
 6203OM     OM1 6203   6.288   0.291   2.379
 6204OM     OM1 6204   6.214   0.519   2.506
 6205OM     OM1 6205   7.786   9.282   8.147
 6206OM     OM1 6206   7.791   9.558   8.171
 6207OM     OM1 6207   7.640   9.398   8.315
 6208OM     OM1 6208   3.700   0.046   8.770
 6209OM     OM1 6209   3.784   9.402   8.822
 6210OM     OM1 6210   6.349   9.153   4.195
 6211OM     OM1 6211   6.241   9.386   4.251
 6212OM     OM1 6212   6.097   9.164   4.239
 6213OM     OM1 6213   6.190   9.257   4.020
 6214OM     OM1 6214   3.609   1.030   1.482
 6215OM     OM1 6215   2.680   0.604   4.569
 6216OM     OM1 6216   2.912   0.523   4.458
 6217OM     OM1 6217   2.775   0.718   4.360
 6218OM     OM1 6218   2.428   8.548   4.034
 6219OM     OM1 6219   2.528   8.309   3.973
 6220OM     OM1 6220   0.688   8.940   0.010
 6221OM     OM1 6221   8.993   0.258   7.761
 6222OM     OM1 6222   9.168   0.279   7.573
 6223OM     OM1 6223   8.183   8.548   2.534
 6224OM     OM1 6224   8.044   8.346   2.660
 6225OM     OM1 6225   8.297   8.368   2.696
 6226OM     OM1 6226   1.151   9.390   5.207
 6227OM     OM1 6227   1.158   9.461   4.956
 6228OM     OM1 6228   1.303   9.587   5.113
 6229OM     OM1 6229   7.184   1.302   4.035
 6230OM     OM1 6230   7.961   1.215   5.550
 6231OM     OM1 6231   7.996   1.116   5.787
 6232OM     OM1 6232   7.757   1.190   5.714
 6233OM     OM1 6233   0.105   8.269   3.638
 6234OM     OM1 6234   8.171   8.804   9.324
 6235OM     OM1 6235   8.211   8.415   0.032
 6236OM     OM1 6236   0.223   8.609   1.869
 6237OM     OM1 6237   0.378   8.817   1.918
 6238OM     OM1 6238   0.367   8.592   2.077
 6239OM     OM1 6239   7.149   8.599   8.534
 6240OM     OM1 6240   7.326   8.763   8.477
 6241OM     OM1 6241   7.384   8.541   8.629
 6242OM     OM1 6242   7.254   8.744   8.723
 6243OM     OM1 6243   5.413   1.015   8.006
 6244OM     OM1 6244   5.581   0.942   7.816
 6245OM     OM1 6245   7.485   0.699   5.840
 6246OM     OM1 6246   6.477   8.807   4.532
 6247OM     OM1 6247   6.717   8.884   4.509
 6248OM     OM1 6248   3.808   9.503   3.547
 6249OM     OM1 6249   3.668   9.401   3.355
 6250OM     OM1 6250   3.659   0.053   3.393
 6251OM     OM1 6251   5.707   1.282   1.123
 6252OM     OM1 6252   4.945   0.515   8.684
 6253OM     OM1 6253   4.725   0.629   8.774
 6254OM     OM1 6254   4.783   0.637   8.524
 6255OM     OM1 6255   9.392   0.662   3.321
 6256OM     OM1 6256   9.571   0.512   3.556
 6257OM     OM1 6257   9.464   0.414   3.284
 6258OM     OM1 6258   0.035   0.603   3.330
 6259OM     OM1 6259   5.470   0.035   8.791
 6260OM     OM1 6260   5.531   9.385   8.754
 6261OM     OM1 6261   5.716   9.555   8.844
 6262OM     OM1 6262   0.975   1.130   3.567
 6263OM     OM1 6263   0.737   1.216   3.622
 6264OM     OM1 6264   0.760   1.047   3.426
 6265OM     OM1 6265   2.584   1.137   9.208
 6266OM     OM1 6266   9.217   8.552   7.298
 6267OM     OM1 6267   7.152   8.283   5.462
 6268OM     OM1 6268   7.665   0.319   2.360
 6269OM     OM1 6269   7.406   0.293   2.388
 6270OM     OM1 6270   7.516   0.526   2.345
 6271OM     OM1 6271   7.503   0.339   2.151
 6272OM     OM1 6272   5.351   8.601   0.236
 6273OM     OM1 6273   5.215   8.760   0.086
 6274OM     OM1 6274   5.105   8.667   0.315
 6275OM     OM1 6275   4.910   8.832   0.349
 6276OM     OM1 6276   8.332   8.563   5.874
 6277OM     OM1 6277   8.517   8.481   6.031
 6278OM     OM1 6278   1.508   9.341   2.119
 6279OM     OM1 6279   1.569   9.128   2.264
 6280OM     OM1 6280   1.571   9.131   1.996
 6281OM     OM1 6281   1.356   9.113   2.131
 6282OM     OM1 6282   9.483   0.704   9.057
 6283OM     OM1 6283   4.080   0.260   4.014
 6284OM     OM1 6284   4.038   0.485   3.889
 6285OM     OM1 6285   4.266   0.445   4.012
 6286OM     OM1 6286   5.977   9.146   7.121
 6287OM     OM1 6287   6.221   9.134   7.220
 6288OM     OM1 6288   5.601   0.437   6.830
 6289OM     OM1 6289   5.522   0.201   6.888
 6290OM     OM1 6290   6.321   0.084   7.504
 6291OM     OM1 6291   6.138   0.177   7.337
 6292OM     OM1 6292   6.242   0.423   5.721
 6293OM     OM1 6293   6.170   0.175   5.755
 6294OM     OM1 6294   5.996   0.363   5.672
 6295OM     OM1 6295   4.694   0.156   3.485
 6296OM     OM1 6296   4.878   0.298   3.587
 6297OM     OM1 6297   7.611   0.375   4.182
 6298OM     OM1 6298   7.717   0.198   4.014
 6299OM     OM1 6299   7.571   0.122   4.211
 6300OM     OM1 6300   7.814   0.227   4.251
 6301OM     OM1 6301   5.833   1.006   1.931
 6302OM     OM1 6302   5.705   1.186   2.071
 6303OM     OM1 6303   5.807   1.260   1.854
 6304OM     OM1 6304   9.152   9.502   8.384
 6305OM     OM1 6305   8.951   0.042   8.287
 6306OM     OM1 6306   5.269   1.121   1.222
 6307OM     OM1 6307   5.484   1.139   1.379
 6308OM     OM1 6308   5.459   0.981   1.157
 6309OM     OM1 6309   2.136   8.503   3.406
 6310OM     OM1 6310   2.215   8.293   3.267
 6311OM     OM1 6311   6.691   0.017   7.167
 6312OM     OM1 6312   6.815   9.389   7.197
 6313OM     OM1 6313   6.623   9.455   7.365
 6314OM     OM1 6314   6.269   1.338   5.874
 6315OM     OM1 6315   6.431   1.298   6.066
 6316OM     OM1 6316   5.330   0.140   6.721
 6317OM     OM1 6317   5.325   0.003   6.501
 6318OM     OM1 6318   5.508   0.165   6.532
 6319OM     OM1 6319   4.337   9.116   8.239
 6320OM     OM1 6320   4.483   8.953   8.398
 6321OM     OM1 6321   4.262   8.872   8.273
 6322OM     OM1 6322   4.488   8.935   8.143
 6323OM     OM1 6323   9.475   9.429   2.470
 6324OM     OM1 6324   9.423   9.233   2.641
 6325OM     OM1 6325   8.100   0.768   8.238
 6326OM     OM1 6326   7.949   0.641   8.068
 6327OM     OM1 6327   8.171   0.535   8.124
 6328OM     OM1 6328   2.608   0.941   7.729
 6329OM     OM1 6329   2.447   0.800   7.579
 6330OM     OM1 6330   2.688   0.823   7.502
 6331OM     OM1 6331   8.092   9.562   8.957
 6332OM     OM1 6332   8.126   9.392   8.769
 6333OM     OM1 6333   8.337   9.528   8.879
 6334OM     OM1 6334   8.232   9.339   8.995
 6335OM     OM1 6335   2.003   8.273   5.849
 6336OM     OM1 6336   6.161   0.682   1.754
 6337OM     OM1 6337   6.362   0.630   1.602
 6338OM     OM1 6338   5.564   0.696   1.725
 6339OM     OM1 6339   5.576   0.503   1.552
 6340OM     OM1 6340   9.587   0.797   5.991
 6341OM     OM1 6341   9.430   1.009   5.971
 6342OM     OM1 6342   9.572   0.922   5.761
 6343OM     OM1 6343   1.142   8.718   3.987
 6344OM     OM1 6344   1.114   8.928   4.127
 6345OM     OM1 6345   1.066   8.850   3.773
 6346OM     OM1 6346   2.177   0.522   1.297
 6347OM     OM1 6347   2.057   0.455   1.083
 6348OM     OM1 6348   2.117   0.705   1.119
 6349OM     OM1 6349   1.925   0.600   1.264
 6350OM     OM1 6350   7.589   8.238   8.398
 6351OM     OM1 6351   7.507   8.314   8.634
 6352OM     OM1 6352   6.873   9.033   5.554
 6353OM     OM1 6353   6.995   8.982   5.329
 6354OM     OM1 6354   6.819   9.345   9.500
 6355OM     OM1 6355   6.761   9.422   9.260
 6356OM     OM1 6356   6.797   8.978   9.122
 6357OM     OM1 6357   5.235   0.096   8.881
 6358OM     OM1 6358   1.706   0.224   7.634
 6359OM     OM1 6359   1.826   0.456   7.581
 6360OM     OM1 6360   0.931   8.952   4.315
 6361OM     OM1 6361   0.890   8.645   4.283
 6362OM     OM1 6362   1.046   8.932   4.540
 6363OM     OM1 6363   0.830   8.784   4.486
 6364OM     OM1 6364   6.122   8.396   5.047
 6365OM     OM1 6365   5.920   8.533   5.155
 6366OM     OM1 6366   5.889   8.431   4.921
 6367OM     OM1 6367   6.059   8.619   4.940
 6368OM     OM1 6368   3.619   8.665   7.991
 6369OM     OM1 6369   3.691   8.615   8.226
 6370OM     OM1 6370   3.768   8.853   8.111
 6371OM     OM1 6371   7.386   9.057   6.831
 6372OM     OM1 6372   7.569   9.038   7.019
 6373OM     OM1 6373   7.484   8.825   6.886
 6374OM     OM1 6374   6.526   9.559   7.586
 6375OM     OM1 6375   6.762   9.455   7.581
 6376OM     OM1 6376   3.349   0.897   5.152
 6377OM     OM1 6377   3.103   0.857   5.228
 6378OM     OM1 6378   7.151   8.416   8.361
 6379OM     OM1 6379   7.220   8.228   8.522
 6380OM     OM1 6380   7.349   8.262   8.296
 6381OM     OM1 6381   4.555   0.242   1.112
 6382OM     OM1 6382   5.472   8.376   0.508
 6383OM     OM1 6383   1.749   8.275   5.432
 6384OM     OM1 6384   1.943   8.289   5.603
 6385OM     OM1 6385   7.200   8.312   3.499
 6386OM     OM1 6386   7.268   8.232   3.735
 6387OM     OM1 6387   4.259   0.252   2.493
 6388OM     OM1 6388   4.311   0.052   2.335
 6389OM     OM1 6389   4.500   0.121   2.499
 6390OM     OM1 6390   4.434   0.275   2.302
 6391OM     OM1 6391   9.371   0.034   1.004
 6392OM     OM1 6392   9.551   9.501   0.890
 6393OM     OM1 6393   9.450   9.405   1.107
 6394OM     OM1 6394   9.294   9.412   0.902
 6395OM     OM1 6395   5.087   1.134   0.609
 6396OM     OM1 6396   5.269   1.296   0.549
 6397OM     OM1 6397   5.140   1.179   0.354
 6398OM     OM1 6398   1.453   9.547   5.840
 6399OM     OM1 6399   1.667   9.414   5.781
 6400OM     OM1 6400   1.266   0.005   5.653
 6401OM     OM1 6401   8.578   8.826   8.650
 6402OM     OM1 6402   8.195   8.960   8.553
 6403OM     OM1 6403   8.185   8.725   8.624
 6404OM     OM1 6404   7.496   8.462   8.857
 6405OM     OM1 6405   7.519   8.513   9.122
 6406OM     OM1 6406   7.726   8.512   8.961
 6407OM     OM1 6407   1.789   8.645   3.470
 6408OM     OM1 6408   1.586   8.667   3.308
 6409OM     OM1 6409   0.053   0.125   0.822
 6410OM     OM1 6410   5.850   0.557   8.919
 6411OM     OM1 6411   5.664   0.380   8.882
 6412OM     OM1 6412   7.203   8.957   2.322
 6413OM     OM1 6413   7.223   8.724   2.440
 6414OM     OM1 6414   7.439   8.866   2.400
 6415OM     OM1 6415   7.646   8.417   2.378
 6416OM     OM1 6416   2.050   1.016   0.567
 6417OM     OM1 6417   2.333   1.184   0.314
 6418OM     OM1 6418   2.269   0.965   0.428
 6419OM     OM1 6419   0.870   0.059   1.566
 6420OM     OM1 6420   0.804   9.425   1.671
 6421OM     OM1 6421   0.991   9.396   3.755
 6422OM     OM1 6422   1.243   9.352   3.755
 6423OM     OM1 6423   2.226   8.431   4.956
 6424OM     OM1 6424   6.303   1.041   2.369
 6425OM     OM1 6425   6.070   1.156   2.397
 6426OM     OM1 6426   6.085   0.960   2.233
 6427OM     OM1 6427   6.211   1.196   2.189
 6428OM     OM1 6428   2.649   9.291   9.221
 6429OM     OM1 6429   2.697   9.442   9.025
 6430OM     OM1 6430   8.099   0.343   7.645
 6431OM     OM1 6431   8.209   0.463   7.859
 6432OM     OM1 6432   3.500   0.171   9.045
 6433OM     OM1 6433   3.321   0.169   9.231
 6434OM     OM1 6434   7.800   8.684   8.782
 6435OM     OM1 6435   7.975   8.595   8.949
 6436OM     OM1 6436   7.779   8.748   9.040
 6437OM     OM1 6437   8.236   8.542   8.934
 6438OM     OM1 6438   6.010   9.346   5.174
 6439OM     OM1 6439   5.910   9.227   5.384
 6440OM     OM1 6440   7.077   8.262   2.791
 6441OM     OM1 6441   7.180   8.402   2.991
 6442OM     OM1 6442   6.994   8.503   2.850
 6443OM     OM1 6443   6.199   1.000   8.420
 6444OM     OM1 6444   6.146   0.821   8.612
 6445OM     OM1 6445   6.232   0.750   8.362
 6446OM     OM1 6446   5.995   0.832   8.404
 6447OM     OM1 6447   1.291   1.001   6.391
 6448OM     OM1 6448   1.138   1.207   6.409
 6449OM     OM1 6449   1.400   1.218   6.338
 6450OM     OM1 6450   6.403   0.894   3.130
 6451OM     OM1 6451   6.598   1.069   3.190
 6452OM     OM1 6452   6.386   1.067   3.323
 6453OM     OM1 6453   3.360   8.878   5.849
 6454OM     OM1 6454   3.402   8.839   6.091
 6455OM     OM1 6455   3.612   8.886   5.947
 6456OM     OM1 6456   1.746   0.447   2.325
 6457OM     OM1 6457   1.722   0.486   2.590
 6458OM     OM1 6458   1.523   0.535   2.416
 6459OM     OM1 6459   1.744   0.682   2.427
 6460OM     OM1 6460   4.027   8.712   0.841
 6461OM     OM1 6461   3.894   8.882   0.719
 6462OM     OM1 6462   4.140   8.949   0.813
 6463OM     OM1 6463   4.108   8.802   0.607
 6464OM     OM1 6464   3.160   0.664   2.612
 6465OM     OM1 6465   3.314   0.498   2.453
 6466OM     OM1 6466   3.168   0.420   2.642
 6467OM     OM1 6467   7.694   8.451   3.654
 6468OM     OM1 6468   7.053   9.292   3.151
 6469OM     OM1 6469   6.950   9.069   2.865
 6470OM     OM1 6470   7.135   9.465   2.974
 6471OM     OM1 6471   7.121   9.108   6.432
 6472OM     OM1 6472   6.932   9.227   6.296
 6473OM     OM1 6473   3.706   0.708   7.309
 6474OM     OM1 6474   3.859   0.870   7.432
 6475OM     OM1 6475   3.593   0.894   7.467
 6476OM     OM1 6476   4.991   9.466   2.759
 6477OM     OM1 6477   4.810   9.394   2.921
 6478OM     OM1 6478   4.936   0.016   2.973
 6479OM     OM1 6479   2.833   9.522   6.590
 6480OM     OM1 6480   3.035   1.042   9.530
 6481OM     OM1 6481   3.056   1.058   9.272
 6482OM     OM1 6482   2.922   0.864   9.367
 6483OM     OM1 6483   1.678   9.267   6.531
 6484OM     OM1 6484   1.864   9.277   6.359
 6485OM     OM1 6485   1.916   9.237   6.624
 6486OM     OM1 6486   1.462   1.303   8.415
 6487OM     OM1 6487   1.413   1.085   8.285
 6488OM     OM1 6488   1.643   1.124   8.183
 6489OM     OM1 6489   6.567   8.416   6.605
 6490OM     OM1 6490   5.094   0.989   2.246
 6491OM     OM1 6491   4.854   0.949   2.343
 6492OM     OM1 6492   4.947   1.301   1.998
 6493OM     OM1 6493   7.546   0.812   3.611
 6494OM     OM1 6494   7.503   1.052   3.698
 6495OM     OM1 6495   7.660   0.911   3.836
 6496OM     OM1 6496   7.742   0.993   3.608
 6497OM     OM1 6497   3.451   8.478   8.795
 6498OM     OM1 6498   3.608   8.552   8.993
 6499OM     OM1 6499   3.402   8.703   8.903
 6500OM     OM1 6500   3.367   8.491   9.048
 6501OM     OM1 6501   6.752   8.766   0.855
 6502OM     OM1 6502   6.515   8.838   0.932
 6503OM     OM1 6503   4.922   0.511   9.065
 6504OM     OM1 6504   5.108   0.471   8.890
 6505OM     OM1 6505   7.314   9.433   4.636
 6506OM     OM1 6506   7.554   9.353   4.733
 6507OM     OM1 6507   8.220   8.607   0.381
 6508OM     OM1 6508   0.720   9.099   2.463
 6509OM     OM1 6509   0.830   9.296   2.338
 6510OM     OM1 6510   0.602   9.327   2.459
 6511OM     OM1 6511   0.830   9.305   2.595
 6512OM     OM1 6512   3.980   0.307   8.110
 6513OM     OM1 6513   1.927   0.844   9.318
 6514OM     OM1 6514   2.159   0.971   9.259
 6515OM     OM1 6515   5.134   1.128   6.061
 6516OM     OM1 6516   5.105   0.880   6.048
 6517OM     OM1 6517   2.213   8.357   1.133
 6518OM     OM1 6518   2.100   8.551   1.268
 6519OM     OM1 6519   2.462   8.289   1.110
 6520OM     OM1 6520   6.656   0.132   6.656
 6521OM     OM1 6521   6.786   9.516   6.676
 6522OM     OM1 6522   7.098   1.047   2.387
 6523OM     OM1 6523   7.108   0.924   2.141
 6524OM     OM1 6524   6.906   0.909   2.298
 6525OM     OM1 6525   0.702   8.369   4.673
 6526OM     OM1 6526   6.953   1.157   0.374
 6527OM     OM1 6527   0.813   9.256   5.667
 6528OM     OM1 6528   0.698   9.024   5.631
 6529OM     OM1 6529   0.621   9.172   5.821
 6530OM     OM1 6530   6.646   9.075   5.660
 6531OM     OM1 6531   6.491   9.102   5.860
 6532OM     OM1 6532   6.778   8.538   2.382
 6533OM     OM1 6533   6.869   8.442   2.164
 6534OM     OM1 6534   6.956   8.672   2.234
 6535OM     OM1 6535   7.025   8.461   2.374
 6536OM     OM1 6536   0.219   0.589   1.641
 6537OM     OM1 6537   0.172   0.739   1.426
 6538OM     OM1 6538   8.794   1.301   4.837
 6539OM     OM1 6539   8.849   1.139   4.636
 6540OM     OM1 6540   3.311   9.444   3.162
 6541OM     OM1 6541   3.242   9.195   3.214
 6542OM     OM1 6542   3.501   9.267   3.208
 6543OM     OM1 6543   3.349   9.331   3.402
 6544OM     OM1 6544   0.092   0.668   3.793
 6545OM     OM1 6545   0.061   0.530   3.998
 6546OM     OM1 6546   0.279   0.663   4.010
 6547OM     OM1 6547   4.984   8.581   7.663
 6548OM     OM1 6548   4.776   8.676   7.776
 6549OM     OM1 6549   5.002   8.638   7.919
 6550OM     OM1 6550   5.060   0.110   5.992
 6551OM     OM1 6551   5.175   0.203   6.199
 6552OM     OM1 6552   4.973   0.368   6.182
 6553OM     OM1 6553   3.129   9.440   5.790
 6554OM     OM1 6554   2.974   0.040   5.719
 6555OM     OM1 6555   0.138   0.671   8.667
 6556OM     OM1 6556   6.299   1.029   0.394
 6557OM     OM1 6557   6.116   1.098   0.205
 6558OM     OM1 6558   8.047   1.317   1.047
 6559OM     OM1 6559   7.423   0.803   8.542
 6560OM     OM1 6560   7.466   1.052   8.602
 6561OM     OM1 6561   7.472   0.986   8.349
 6562OM     OM1 6562   7.660   0.905   8.509
 6563OM     OM1 6563   2.076   0.847   3.036
 6564OM     OM1 6564   2.319   0.793   2.951
 6565OM     OM1 6565   2.114   0.685   2.835
 6566OM     OM1 6566   2.532   8.526   3.230
 6567OM     OM1 6567   2.675   8.388   3.053
 6568OM     OM1 6568   2.414   8.330   3.108
 6569OM     OM1 6569   2.429   1.200   1.643
 6570OM     OM1 6570   2.678   1.131   1.722
 6571OM     OM1 6571   6.322   0.861   1.119
 6572OM     OM1 6572   1.445   8.292   7.415
 6573OM     OM1 6573   1.421   8.506   7.253
 6574OM     OM1 6574   1.594   8.347   7.645
 6575OM     OM1 6575   2.548   0.540   9.482
 6576OM     OM1 6576   2.484   0.329   0.019
 6577OM     OM1 6577   2.704   0.452   0.068
 6578OM     OM1 6578   9.542   8.918   5.138
 6579OM     OM1 6579   0.002   9.025   5.362
 6580OM     OM1 6580   0.181   8.923   5.200
 6581OM     OM1 6581   7.918   8.339   8.229
 6582OM     OM1 6582   8.550   8.826   9.160
 6583OM     OM1 6583   8.702   9.019   9.077
 6584OM     OM1 6584   8.766   8.784   9.015
 6585OM     OM1 6585   8.556   8.881   8.903
 6586OM     OM1 6586   4.529   0.193   6.197
 6587OM     OM1 6587   4.726   0.345   6.283
 6588OM     OM1 6588   6.034   0.588   5.553
 6589OM     OM1 6589   6.177   0.792   5.615
 6590OM     OM1 6590   6.014   0.983   5.650
 6591OM     OM1 6591   6.143   0.903   5.860
 6592OM     OM1 6592   2.355   0.738   8.968
 6593OM     OM1 6593   2.361   0.835   8.735
 6594OM     OM1 6594   0.259   1.202   0.641
 6595OM     OM1 6595   0.015   1.214   0.556
 6596OM     OM1 6596   0.177   1.017   0.475
 6597OM     OM1 6597   0.920   0.037   4.356
 6598OM     OM1 6598   0.910   0.049   4.627
 6599OM     OM1 6599   1.030   0.225   4.495
 6600OM     OM1 6600   7.346   1.143   8.822
 6601OM     OM1 6601   7.605   1.141   8.805
 6602OM     OM1 6602   3.611   9.435   1.785
 6603OM     OM1 6603   3.677   0.039   1.660
 6604OM     OM1 6604   3.439   0.029   1.769
 6605OM     OM1 6605   3.500   9.489   1.555
 6606OM     OM1 6606   2.936   0.501   6.830
 6607OM     OM1 6607   2.822   0.573   7.071
 6608OM     OM1 6608   3.737   9.078   1.041
 6609OM     OM1 6609   3.634   9.234   0.850
 6610OM     OM1 6610   3.872   9.145   0.827
 6611OM     OM1 6611   3.676   8.982   0.807
 6612OM     OM1 6612   0.872   0.767   2.603
 6613OM     OM1 6613   0.979   0.928   2.427
 6614OM     OM1 6614   1.072   0.940   2.653
 6615OM     OM1 6615   6.142   1.247   5.687
 6616OM     OM1 6616   6.269   1.033   5.670
 6617OM     OM1 6617   6.215   1.171   5.455
 6618OM     OM1 6618   9.169   0.178   6.846
 6619OM     OM1 6619   9.082   0.233   7.081
 6620OM     OM1 6620   0.730   8.789   0.876
 6621OM     OM1 6621   0.715   8.529   0.926
 6622OM     OM1 6622   0.657   8.930   1.068
 6623OM     OM1 6623   7.179   0.692   7.210
 6624OM     OM1 6624   7.162   0.456   7.336
 6625OM     OM1 6625   7.809   9.010   3.852
 6626OM     OM1 6626   7.917   8.976   4.089
 6627OM     OM1 6627   7.681   8.881   4.045
 6628OM     OM1 6628   7.714   9.137   4.063
 6629OM     OM1 6629   3.784   0.257   3.293
 6630OM     OM1 6630   3.688   0.088   3.135
 6631OM     OM1 6631   3.240   8.696   5.714
 6632OM     OM1 6632   3.311   8.487   5.573
 6633OM     OM1 6633   2.566   8.803   9.236
 6634OM     OM1 6634   2.583   8.773   8.982
 6635OM     OM1 6635   2.479   8.992   9.066
 6636OM     OM1 6636   4.409   1.072   6.697
 6637OM     OM1 6637   4.298   0.926   6.505
 6638OM     OM1 6638   4.254   1.182   6.515
 6639OM     OM1 6639   1.069   8.290   6.732
 6640OM     OM1 6640   4.362   1.026   3.542
 6641OM     OM1 6641   4.245   1.057   3.306
 6642OM     OM1 6642   4.288   1.267   3.469
 6643OM     OM1 6643   1.265   8.306   6.037
 6644OM     OM1 6644   4.899   8.449   0.020
 6645OM     OM1 6645   5.129   8.518   0.116
 6646OM     OM1 6646   4.971   8.339   0.243
 6647OM     OM1 6647   6.171   1.085   9.559
 6648OM     OM1 6648   4.616   8.435   1.519
 6649OM     OM1 6649   4.384   8.375   1.602
 6650OM     OM1 6650   4.583   8.311   1.756
 6651OM     OM1 6651   2.518   0.436   2.812
 6652OM     OM1 6652   2.630   0.320   2.601
 6653OM     OM1 6653   2.376   0.377   2.601
 6654OM     OM1 6654   2.473   0.189   2.756
 6655OM     OM1 6655   3.288   8.575   2.950
 6656OM     OM1 6656   3.265   8.664   2.704
 6657OM     OM1 6657   3.324   8.824   2.910
 6658OM     OM1 6658   1.522   8.272   5.324
 6659OM     OM1 6659   6.724   0.111   2.132
 6660OM     OM1 6660   6.518   0.184   2.287
 6661OM     OM1 6661   6.691   0.353   2.203
 6662OM     OM1 6662   5.188   0.266   3.305
 6663OM     OM1 6663   5.184   0.546   3.327
 6664OM     OM1 6664   7.093   8.261   2.531
 6665OM     OM1 6665   7.242   8.475   2.507
 6666OM     OM1 6666   3.493   8.338   6.272
 6667OM     OM1 6667   3.444   8.596   6.200
 6668OM     OM1 6668   2.730   9.134   1.601
 6669OM     OM1 6669   2.945   9.275   1.648
 6670OM     OM1 6670   2.913   9.044   1.762
 6671OM     OM1 6671   1.675   0.554   2.834
 6672OM     OM1 6672   1.920   0.519   2.769
 6673OM     OM1 6673   1.034   0.681   5.244
 6674OM     OM1 6674   1.236   0.824   5.298
 6675OM     OM1 6675   1.106   0.857   5.064
 6676OM     OM1 6676   8.643   0.305   4.534
 6677OM     OM1 6677   8.618   0.294   4.267
 6678OM     OM1 6678   8.786   0.138   4.410
 6679OM     OM1 6679   3.238   8.649   6.680
 6680OM     OM1 6680   3.488   8.671   6.637
 6681OM     OM1 6681   3.313   8.860   6.557
 6682OM     OM1 6682   3.378   8.832   6.806
 6683OM     OM1 6683   3.742   0.912   3.526
 6684OM     OM1 6684   0.871   9.456   8.969
 6685OM     OM1 6685   7.690   8.974   3.615
 6686OM     OM1 6686   7.608   9.097   3.412
 6687OM     OM1 6687   0.365   9.334   0.127
 6688OM     OM1 6688   4.529   9.411   7.877
 6689OM     OM1 6689   4.363   9.258   7.744
 6690OM     OM1 6690   4.388   9.241   8.009
 6691OM     OM1 6691   9.058   1.120   9.479
 6692OM     OM1 6692   8.935   0.957   9.324
 6693OM     OM1 6693   9.000   0.891   9.579
 6694OM     OM1 6694   8.799   1.042   9.513
 6695OM     OM1 6695   2.404   0.998   4.751
 6696OM     OM1 6696   2.535   0.823   4.605
 6697OM     OM1 6697   2.289   0.907   4.531
 6698OM     OM1 6698   2.495   1.063   4.515
 6699OM     OM1 6699   1.166   0.508   0.813
 6700OM     OM1 6700   0.911   0.447   0.803
 6701OM     OM1 6701   1.021   0.559   1.020
 6702OM     OM1 6702   0.977   0.697   0.810
 6703OM     OM1 6703   3.293   0.062   7.373
 6704OM     OM1 6704   3.338   0.213   7.579
 6705OM     OM1 6705   3.437   0.962   2.199
 6706OM     OM1 6706   3.215   0.823   2.194
 6707OM     OM1 6707   3.185   0.519   4.509
 6708OM     OM1 6708   3.087   0.618   4.286
 6709OM     OM1 6709   0.677   1.094   3.190
 6710OM     OM1 6710   0.562   1.022   2.979
 6711OM     OM1 6711   7.353   9.356   2.386
 6712OM     OM1 6712   9.210   8.962   2.314
 6713OM     OM1 6713   9.046   9.116   2.445
 6714OM     OM1 6714   9.002   9.082   2.196
 6715OM     OM1 6715   9.212   9.223   2.265
 6716OM     OM1 6716   7.453   0.060   3.632
 6717OM     OM1 6717   6.501   0.456   0.385
 6718OM     OM1 6718   6.727   0.586   0.377
 6719OM     OM1 6719   6.594   0.554   0.157
 6720OM     OM1 6720   6.716   0.352   0.274
 6721OM     OM1 6721   4.889   8.412   4.776
 6722OM     OM1 6722   4.692   8.411   4.957
 6723OM     OM1 6723   4.682   8.559   4.734
 6724OM     OM1 6724   2.524   0.675   8.610
 6725OM     OM1 6725   7.325   8.386   7.492
 6726OM     OM1 6726   3.095   8.375   7.778
 6727OM     OM1 6727   4.684   9.321   6.074
 6728OM     OM1 6728   4.812   9.420   5.872
 6729OM     OM1 6729   2.742   0.582   1.566
 6730OM     OM1 6730   2.599   0.704   1.373
 6731OM     OM1 6731   2.833   0.616   1.326
 6732OM     OM1 6732   3.320   0.866   0.948
 6733OM     OM1 6733   3.155   1.074   0.921
 6734OM     OM1 6734   6.894   8.443   6.057
 6735OM     OM1 6735   7.096   8.344   5.904
 6736OM     OM1 6736   3.877   0.988   8.796
 6737OM     OM1 6737   4.082   1.292   9.079
 6738OM     OM1 6738   8.267   0.167   1.220
 6739OM     OM1 6739   8.516   0.166   1.286
 6740OM     OM1 6740   8.420   9.548   1.212
 6741OM     OM1 6741   1.566   1.296   5.925
 6742OM     OM1 6742   1.507   1.125   6.120
 6743OM     OM1 6743   3.147   0.740   7.430
 6744OM     OM1 6744   3.374   0.827   7.347
 6745OM     OM1 6745   3.297   0.581   7.281
 6746OM     OM1 6746   7.162   1.184   2.601
 6747OM     OM1 6747   7.242   0.920   2.555
 6748OM     OM1 6748   1.774   0.818   6.968
 6749OM     OM1 6749   1.735   0.760   6.728
 6750OM     OM1 6750   1.751   1.010   6.789
 6751OM     OM1 6751   1.535   0.888   6.863
 6752OM     OM1 6752   0.099   0.326   5.154
 6753OM     OM1 6753   0.082   0.585   5.213
 6754OM     OM1 6754   0.135   0.409   5.399
 6755OM     OM1 6755   9.507   0.407   5.295
 6756OM     OM1 6756   8.383   1.146   4.462
 6757OM     OM1 6757   8.636   1.125   4.480
 6758OM     OM1 6758   6.551   0.909   7.751
 6759OM     OM1 6759   6.997   1.030   9.452
 6760OM     OM1 6760   6.849   0.828   9.425
 6761OM     OM1 6761   6.989   0.849   0.043
 6762OM     OM1 6762   1.582   9.243   7.138
 6763OM     OM1 6763   1.490   9.124   6.915
 6764OM     OM1 6764   1.382   9.449   7.009
 6765OM     OM1 6765   1.851   8.801   3.668
 6766OM     OM1 6766   2.304   8.869   3.750
 6767OM     OM1 6767   2.073   8.909   3.643
 6768OM     OM1 6768   3.619   0.831   4.550
 6769OM     OM1 6769   3.419   0.638   4.545
 6770OM     OM1 6770   3.634   0.598   4.672
 6771OM     OM1 6771   1.762   8.928   6.813
 6772OM     OM1 6772   1.619   8.716   6.816
 6773OM     OM1 6773   1.516   8.946   6.735
 6774OM     OM1 6774   2.216   0.622   7.096
 6775OM     OM1 6775   2.044   0.800   7.006
 6776OM     OM1 6776   2.254   0.760   6.865
 6777OM     OM1 6777   1.407   0.184   5.776
 6778OM     OM1 6778   1.694   0.054   5.864
 6779OM     OM1 6779   1.515   0.014   5.603
 6780OM     OM1 6780   5.161   9.149   6.520
 6781OM     OM1 6781   5.214   8.942   6.378
 6782OM     OM1 6782   5.066   8.994   6.173
 6783OM     OM1 6783   1.089   1.176   1.986
 6784OM     OM1 6784   1.286   1.178   1.818
 6785OM     OM1 6785   0.860   0.238   9.269
 6786OM     OM1 6786   0.599   0.314   9.433
 6787OM     OM1 6787   0.985   0.359   9.489
 6788OM     OM1 6788   7.790   0.161   9.146
 6789OM     OM1 6789   7.647   0.334   9.272
 6790OM     OM1 6790   7.598   0.292   9.019
 6791OM     OM1 6791   8.042   0.350   7.037
 6792OM     OM1 6792   7.865   0.150   6.981
 6793OM     OM1 6793   8.037   0.219   6.811
 6794OM     OM1 6794   2.472   0.573   0.409
 6795OM     OM1 6795   2.519   0.998   0.360
 6796OM     OM1 6796   1.365   0.237   1.519
 6797OM     OM1 6797   1.257   0.328   1.728
 6798OM     OM1 6798   1.472   0.578   6.870
 6799OM     OM1 6799   1.679   0.423   6.801
 6800OM     OM1 6800   1.619   0.452   7.048
 6801OM     OM1 6801   4.124   9.062   6.616
 6802OM     OM1 6802   4.216   8.947   6.835
 6803OM     OM1 6803   4.167   9.204   6.826
 6804OM     OM1 6804   5.450   8.950   8.567
 6805OM     OM1 6805   5.457   9.118   8.780
 6806OM     OM1 6806   5.661   9.076   8.639
 6807OM     OM1 6807   9.143   0.353   4.479
 6808OM     OM1 6808   9.260   0.421   4.709
 6809OM     OM1 6809   9.060   0.248   4.695
 6810OM     OM1 6810   6.215   8.444   9.466
 6811OM     OM1 6811   1.677   0.618   1.357
 6812OM     OM1 6812   2.233   8.645   5.118
 6813OM     OM1 6813   2.039   8.568   7.791
 6814OM     OM1 6814   2.145   8.700   7.591
 6815OM     OM1 6815   5.263   9.394   0.694
 6816OM     OM1 6816   5.099   9.569   0.590
 6817OM     OM1 6817   6.740   9.466   0.130
 6818OM     OM1 6818   6.973   9.340   0.092
 6819OM     OM1 6819   5.475   0.152   5.851
 6820OM     OM1 6820   5.417   9.503   5.851
 6821OM     OM1 6821   5.559   0.002   6.050
 6822OM     OM1 6822   5.304   0.045   6.034
 6823OM     OM1 6823   5.558   8.476   9.052
 6824OM     OM1 6824   5.510   8.450   8.802
 6825OM     OM1 6825   1.384   8.370   5.529
 6826OM     OM1 6826   1.196   8.541   5.529
 6827OM     OM1 6827   1.157   8.309   5.638
 6828OM     OM1 6828   6.750   9.366   3.626
 6829OM     OM1 6829   6.615   9.513   3.470
 6830OM     OM1 6830   6.639   9.270   3.407
 6831OM     OM1 6831   0.636   9.164   3.441
 6832OM     OM1 6832   0.885   9.176   3.340
 6833OM     OM1 6833   6.327   9.018   0.978
 6834OM     OM1 6834   6.450   8.896   1.170
 6835OM     OM1 6835   3.632   1.235   1.660
 6836OM     OM1 6836   3.981   1.343   1.568
 6837OM     OM1 6837   3.840   1.131   1.586
 6838OM     OM1 6838   3.316   0.932   0.214
 6839OM     OM1 6839   3.449   0.726   0.295
 6840OM     OM1 6840   6.537   9.340   4.870
 6841OM     OM1 6841   4.143   8.743   6.700
 6842OM     OM1 6842   4.374   8.743   6.800
 6843OM     OM1 6843   9.045   8.418   3.357
 6844OM     OM1 6844   9.156   8.526   3.567
 6845OM     OM1 6845   2.523   0.498   5.076
 6846OM     OM1 6846   2.402   0.516   5.314
 6847OM     OM1 6847   2.280   0.422   5.110
 6848OM     OM1 6848   2.489   0.292   5.224
 6849OM     OM1 6849   6.857   0.053   7.447
 6850OM     OM1 6850   6.979   0.269   7.372
 6851OM     OM1 6851   6.721   0.227   7.302
 6852OM     OM1 6852   9.183   0.839   1.834
 6853OM     OM1 6853   9.008   0.637   1.815
 6854OM     OM1 6854   8.493   1.334   3.820
 6855OM     OM1 6855   8.580   1.097   3.741
 6856OM     OM1 6856   4.816   0.105   1.751
 6857OM     OM1 6857   5.017   0.239   1.855
 6858OM     OM1 6858   4.798   0.238   1.978
 6859OM     OM1 6859   4.818   0.367   1.744
 6860OM     OM1 6860   3.358   9.559   6.202
 6861OM     OM1 6861   3.841   9.589   6.097
 6862OM     OM1 6862   3.516   9.375   6.312
 6863OM     OM1 6863   4.789   0.257   4.893
 6864OM     OM1 6864   9.122   9.102   1.091
 6865OM     OM1 6865   9.215   9.019   1.324
 6866OM     OM1 6866   9.366   9.171   1.177
 6867OM     OM1 6867   7.782   0.793   8.704
 6868OM     OM1 6868   7.788   1.156   8.998
 6869OM     OM1 6869   7.758   0.913   8.931
 6870OM     OM1 6870   1.196   0.443   3.295
 6871OM     OM1 6871   1.230   0.359   3.026
 6872OM     OM1 6872   9.006   9.138   3.295
 6873OM     OM1 6873   9.154   9.004   3.463
 6874OM     OM1 6874   9.130   8.927   3.214
 6875OM     OM1 6875   2.328   0.005   4.455
 6876OM     OM1 6876   2.278   9.380   4.577
 6877OM     OM1 6877   2.165   0.010   4.656
 6878OM     OM1 6878   3.657   9.210   1.878
 6879OM     OM1 6879   3.543   9.093   2.069
 6880OM     OM1 6880   7.007   8.783   8.749
 6881OM     OM1 6881   6.837   8.806   8.550
 6882OM     OM1 6882   7.092   8.874   8.516
 6883OM     OM1 6883   0.307   0.811   3.719
 6884OM     OM1 6884   0.168   0.673   3.550
 6885OM     OM1 6885   4.691   9.293   3.530
 6886OM     OM1 6886   4.449   9.215   3.507
 6887OM     OM1 6887   2.392   0.506   6.638
 6888OM     OM1 6888   9.278   0.354   9.273
 6889OM     OM1 6889   9.578   8.371   6.697
 6890OM     OM1 6890   0.169   8.524   6.829
 6891OM     OM1 6891   2.698   0.986   7.306
 6892OM     OM1 6892   2.570   1.203   7.382
 6893OM     OM1 6893   1.418   0.767   2.420
 6894OM     OM1 6894   1.227   0.890   2.311
 6895OM     OM1 6895   5.018   9.520   0.082
 6896OM     OM1 6896   5.217   0.054   0.156
 6897OM     OM1 6897   5.146   0.307   0.147
 6898OM     OM1 6898   5.049   9.570   0.337
 6899OM     OM1 6899   0.515   8.256   1.212
 6900OM     OM1 6900   0.438   8.485   1.115
 6901OM     OM1 6901   2.755   1.319   8.350
 6902OM     OM1 6902   6.592   0.079   1.232
 6903OM     OM1 6903   6.734   9.492   1.327
 6904OM     OM1 6904   6.478   9.508   1.387
 6905OM     OM1 6905   1.794   9.386   8.454
 6906OM     OM1 6906   3.920   8.736   1.327
 6907OM     OM1 6907   3.719   8.600   1.435
 6908OM     OM1 6908   3.784   8.831   1.524
 6909OM     OM1 6909   3.941   8.628   1.571
 6910OM     OM1 6910   2.166   0.899   4.294
 6911OM     OM1 6911   3.562   8.670   7.750
 6912OM     OM1 6912   3.424   8.502   7.908
 6913OM     OM1 6913   5.444   8.404   7.621
 6914OM     OM1 6914   5.383   8.601   7.473
 6915OM     OM1 6915   5.514   8.409   7.351
 6916OM     OM1 6916   1.713   8.568   3.709
 6917OM     OM1 6917   1.656   8.419   3.919
 6918OM     OM1 6918   5.167   9.419   2.575
 6919OM     OM1 6919   4.919   9.329   2.550
 6920OM     OM1 6920   5.090   9.229   2.731
 6921OM     OM1 6921   1.875   8.284   6.207
 6922OM     OM1 6922   0.042   8.711   7.988
 6923OM     OM1 6923   0.269   8.696   7.846
 6924OM     OM1 6924   0.380   8.464   7.812
 6925OM     OM1 6925   0.578   9.457   0.148
 6926OM     OM1 6926   6.284   8.367   0.909
 6927OM     OM1 6927   4.230   1.093   2.444
 6928OM     OM1 6928   4.428   1.089   2.277
 6929OM     OM1 6929   4.204   0.962   2.214
 6930OM     OM1 6930   7.070   9.534   8.791
 6931OM     OM1 6931   3.786   8.342   5.174
 6932OM     OM1 6932   3.571   8.322   5.322
 6933OM     OM1 6933   0.396   9.111   3.549
 6934OM     OM1 6934   0.556   8.918   3.459
 6935OM     OM1 6935   1.710   8.726   8.134
 6936OM     OM1 6936   1.579   8.600   8.327
 6937OM     OM1 6937   1.826   8.692   8.356
 6938OM     OM1 6938   3.143   8.473   3.136
 6939OM     OM1 6939   3.296   8.319   2.968
 6940OM     OM1 6940   3.418   8.466   3.140
 6941OM     OM1 6941   0.064   0.061   5.627
 6942OM     OM1 6942   9.452   9.567   5.535
 6943OM     OM1 6943   9.511   0.204   5.461
 6944OM     OM1 6944   2.183   9.327   7.954
 6945OM     OM1 6945   2.067   9.277   7.737
 6946OM     OM1 6946   0.778   0.856   3.249
 6947OM     OM1 6947   0.827   0.619   3.356
 6948OM     OM1 6948   7.524   8.843   9.486
 6949OM     OM1 6949   7.669   8.752   9.287
 6950OM     OM1 6950   7.665   8.615   9.514
 6951OM     OM1 6951   9.306   0.975   7.288
 6952OM     OM1 6952   9.441   0.882   7.094
 6953OM     OM1 6953   9.249   0.732   7.205
 6954OM     OM1 6954   9.473   0.764   7.325
 6955OM     OM1 6955   9.538   0.470   6.617
 6956OM     OM1 6956   9.362   0.319   6.745
 6957OM     OM1 6957   9.368   0.567   6.784
 6958OM     OM1 6958   6.626   0.270   8.988
 6959OM     OM1 6959   6.601   9.558   9.098
 6960OM     OM1 6960   0.373   1.078   5.503
 6961OM     OM1 6961   0.214   8.360   6.645
 6962OM     OM1 6962   6.623   0.339   1.224
 6963OM     OM1 6963   6.800   0.393   1.047
 6964OM     OM1 6964   6.677   0.504   0.850
 6965OM     OM1 6965   5.453   9.388   3.423
 6966OM     OM1 6966   5.656   9.189   3.807
 6967OM     OM1 6967   5.606   9.369   3.629
 6968OM     OM1 6968   8.756   1.094   2.510
 6969OM     OM1 6969   8.878   0.914   2.366
 6970OM     OM1 6970   6.345   0.068   6.515
 6971OM     OM1 6971   6.302   9.586   6.111
 6972OM     OM1 6972   2.934   0.450   8.395
 6973OM     OM1 6973   2.695   0.495   8.315
 6974OM     OM1 6974   2.761   0.570   8.555
 6975OM     OM1 6975   3.349   8.837   8.442
 6976OM     OM1 6976   3.125   8.943   8.394
 6977OM     OM1 6977   3.325   9.048   8.269
 6978OM     OM1 6978   6.700   8.361   7.691
 6979OM     OM1 6979   8.465   0.603   1.237
 6980OM     OM1 6980   8.266   0.659   1.070
 6981OM     OM1 6981   8.330   0.411   1.140
 6982OM     OM1 6982   0.870   9.504   5.692
 6983OM     OM1 6983   1.064   9.325   5.664
 6984OM     OM1 6984   9.334   0.040   5.004
 6985OM     OM1 6985   9.325   9.480   5.210
 6986OM     OM1 6986   9.105   9.581   5.104
 6987OM     OM1 6987   6.868   8.459   5.363
 6988OM     OM1 6988   6.930   8.335   5.581
 6989OM     OM1 6989   8.480   0.219   4.725
 6990OM     OM1 6990   8.644   0.419   4.773
 6991OM     OM1 6991   1.077   8.815   7.454
 6992OM     OM1 6992   0.894   8.716   7.305
 6993OM     OM1 6993   9.096   0.219   8.195
 6994OM     OM1 6994   9.364   0.194   8.181
 6995OM     OM1 6995   3.028   9.419   4.825
 6996OM     OM1 6996   3.132   0.048   4.914
 6997OM     OM1 6997   9.248   1.258   9.360
 6998OM     OM1 6998   7.305   0.891   0.285
 6999OM     OM1 6999   7.189   0.708   0.149
 7000OM     OM1 7000   0.735   0.913   1.490
 7001OM     OM1 7001   9.160   8.475   2.527
 7002OM     OM1 7002   9.222   0.328   3.342
 7003OM     OM1 7003   7.192   0.436   9.172
 7004OM     OM1 7004   6.948   0.503   9.120
 7005OM     OM1 7005   7.079   0.383   8.933
 7006OM     OM1 7006   3.278   0.675   1.126
 7007OM     OM1 7007   2.034   0.988   5.614
 7008OM     OM1 7008   2.067   1.246   5.607
 7009OM     OM1 7009   2.064   1.111   5.383
 7010OM     OM1 7010   3.703   9.043   2.511
 7011OM     OM1 7011   3.698   8.981   2.261
 7012OM     OM1 7012   3.883   8.892   2.432
 7013OM     OM1 7013   7.107   0.269   2.110
 7014OM     OM1 7014   6.937   0.390   2.273
 7015OM     OM1 7015   6.950   0.134   2.259
 7016OM     OM1 7016   7.150   0.265   2.373
 7017OM     OM1 7017   7.105   9.235   5.675
 7018OM     OM1 7018   6.860   9.202   5.751
 7019OM     OM1 7019   5.936   1.159   8.918
 7020OM     OM1 7020   6.081   1.259   9.117
 7021OM     OM1 7021   8.212   0.754   7.089
 7022OM     OM1 7022   8.224   0.508   7.166
 7023OM     OM1 7023   8.398   0.711   7.257
 7024OM     OM1 7024   2.050   0.592   3.967
 7025OM     OM1 7025   2.138   0.837   4.045
 7026OM     OM1 7026   2.199   0.625   4.174
 7027OM     OM1 7027   1.953   0.710   4.171
 7028OM     OM1 7028   2.154   0.602   6.577
 7029OM     OM1 7029   2.092   0.793   6.400
 7030OM     OM1 7030   2.237   0.841   6.615
 7031OM     OM1 7031   1.986   0.779   6.649
 7032OM     OM1 7032   3.224   0.121   4.147
 7033OM     OM1 7033   3.146   0.356   4.113
 7034OM     OM1 7034   3.026   0.224   4.292
 7035OM     OM1 7035   5.283   8.541   3.408
 7036OM     OM1 7036   5.215   8.377   3.598
 7037OM     OM1 7037   5.247   8.293   3.335
 7038OM     OM1 7038   8.741   9.025   8.579
 7039OM     OM1 7039   8.937   9.051   8.417
 7040OM     OM1 7040   8.902   8.835   8.560
 7041OM     OM1 7041   8.975   9.045   8.690
 7042OM     OM1 7042   3.197   8.914   4.835
 7043OM     OM1 7043   3.280   8.988   4.596
 7044OM     OM1 7044   3.792   8.916   5.053
 7045OM     OM1 7045   3.851   8.737   4.863
 7046OM     OM1 7046   4.006   8.939   4.917
 7047OM     OM1 7047   5.904   9.315   3.196
 7048OM     OM1 7048   6.127   9.429   3.119
 7049OM     OM1 7049   6.052   9.186   3.037
 7050OM     OM1 7050   6.131   9.230   3.284
 7051OM     OM1 7051   7.718   9.461   1.068
 7052OM     OM1 7052   2.508   8.370   0.589
 7053OM     OM1 7053   4.911   0.498   4.154
 7054OM     OM1 7054   5.040   0.337   4.006
 7055OM     OM1 7055   0.737   0.898   3.934
 7056OM     OM1 7056   8.867   0.072   4.649
 7057OM     OM1 7057   8.671   9.534   4.522
 7058OM     OM1 7058   5.566   0.251   2.316
 7059OM     OM1 7059   5.652   0.023   2.384
 7060OM     OM1 7060   5.647   0.215   2.565
 7061OM     OM1 7061   3.345   1.014   4.050
 7062OM     OM1 7062   3.573   0.915   4.033
 7063OM     OM1 7063   3.324   0.971   4.313
 7064OM     OM1 7064   3.539   1.174   4.097
 7065OM     OM1 7065   8.240   8.359   1.664
 7066OM     OM1 7066   8.032   8.221   1.626
 7067OM     OM1 7067   5.540   8.685   3.925
 7068OM     OM1 7068   5.556   8.728   3.660
 7069OM     OM1 7069   5.570   8.927   3.818
 7070OM     OM1 7070   5.341   8.786   3.792
 7071OM     OM1 7071   9.311   8.648   5.408
 7072OM     OM1 7072   9.473   8.670   5.204
 7073OM     OM1 7073   9.442   8.442   5.339
 7074OM     OM1 7074   2.324   0.549   3.579
 7075OM     OM1 7075   2.282   0.800   3.603
 7076OM     OM1 7076   2.116   0.632   3.721
 7077OM     OM1 7077   7.664   9.043   7.575
 7078OM     OM1 7078   7.469   8.934   7.712
 7079OM     OM1 7079   0.455   9.564   4.716
 7080OM     OM1 7080   0.705   9.531   4.704
 7081OM     OM1 7081   0.565   9.486   4.495
 7082OM     OM1 7082   0.928   9.526   4.848
 7083OM     OM1 7083   7.663   8.853   5.528
 7084OM     OM1 7084   7.843   9.023   5.563
 7085OM     OM1 7085   5.086   0.880   0.562
 7086OM     OM1 7086   5.053   0.945   0.812
 7087OM     OM1 7087   2.727   9.443   4.035
 7088OM     OM1 7088   2.519   9.505   3.911
 7089OM     OM1 7089   2.618   0.078   4.079
 7090OM     OM1 7090   2.572   8.907   4.650
 7091OM     OM1 7091   2.687   9.091   5.069
 7092OM     OM1 7092   2.745   9.014   4.819
 7093OM     OM1 7093   2.813   8.837   4.629
 7094OM     OM1 7094   2.361   8.358   1.348
 7095OM     OM1 7095   3.893   0.716   5.211
 7096OM     OM1 7096   3.901   0.821   4.970
 7097OM     OM1 7097   4.082   0.884   5.149
 7098OM     OM1 7098   1.338   8.435   5.274
 7099OM     OM1 7099   6.469   8.400   9.490
 7100OM     OM1 7100   6.383   8.647   9.445
 7101OM     OM1 7101   5.342   8.953   4.361
 7102OM     OM1 7102   5.149   8.965   4.529
 7103OM     OM1 7103   4.710   9.182   1.986
 7104OM     OM1 7104   4.963   9.176   2.024
 7105OM     OM1 7105   4.925   8.922   5.982
 7106OM     OM1 7106   4.762   8.744   5.875
 7107OM     OM1 7107   4.744   8.809   6.127
 7108OM     OM1 7108   8.807   8.706   1.156
 7109OM     OM1 7109   8.588   8.573   1.139
 7110OM     OM1 7110   8.647   8.747   0.959
 7111OM     OM1 7111   8.583   8.830   1.209
 7112OM     OM1 7112   7.171   1.149   3.043
 7113OM     OM1 7113   6.988   1.333   3.073
 7114OM     OM1 7114   7.074   1.263   2.837
 7115OM     OM1 7115   1.968   9.564   7.249
 7116OM     OM1 7116   1.971   9.326   7.359
 7117OM     OM1 7117   2.194   9.449   7.287
 7118OM     OM1 7118   1.474   0.039   8.204
 7119OM     OM1 7119   1.505   0.289   8.283
 7120OM     OM1 7120   1.613   0.106   8.418
 7121OM     OM1 7121   7.228   0.314   9.403
 7122OM     OM1 7122   7.049   0.176   9.542
 7123OM     OM1 7123   7.299   0.089   9.513
 7124OM     OM1 7124   1.015   0.905   9.561
 7125OM     OM1 7125   1.248   0.908   0.076
 7126OM     OM1 7126   0.786   1.031   9.549
 7127OM     OM1 7127   1.400   1.067   7.551
 7128OM     OM1 7128   1.529   0.841   7.544
 7129OM     OM1 7129   1.335   0.861   7.716
 7130OM     OM1 7130   1.560   0.995   7.743
 7131OM     OM1 7131   4.909   8.804   7.323
 7132OM     OM1 7132   4.852   8.651   7.124
 7133OM     OM1 7133   8.472   0.888   8.110
 7134OM     OM1 7134   8.273   0.957   8.247
 7135OM     OM1 7135   2.370   8.739   8.671
 7136OM     OM1 7136   2.173   8.590   8.588
 7137OM     OM1 7137   2.227   8.809   8.462
 7138OM     OM1 7138   3.938   8.821   6.572
 7139OM     OM1 7139   3.711   8.882   6.470
 7140OM     OM1 7140   3.737   8.692   6.646
 7141OM     OM1 7141   6.785   8.292   0.543
 7142OM     OM1 7142   6.637   8.305   0.322
 7143OM     OM1 7143   1.167   0.932   6.589
 7144OM     OM1 7144   1.023   0.880   6.983
 7145OM     OM1 7145   0.908   0.959   6.532
 7146OM     OM1 7146   3.804   8.722   6.280
 7147OM     OM1 7147   3.847   8.607   6.049
 7148OM     OM1 7148   4.030   8.582   6.245
 7149OM     OM1 7149   5.133   0.626   7.690
 7150OM     OM1 7150   5.220   0.865   7.648
 7151OM     OM1 7151   5.318   0.722   7.850
 7152OM     OM1 7152   6.065   0.486   2.719
 7153OM     OM1 7153   6.985   1.187   0.637
 7154OM     OM1 7154   7.152   1.270   0.826
 7155OM     OM1 7155   2.720   0.231   5.345
 7156OM     OM1 7156   2.895   0.192   5.529
 7157OM     OM1 7157   2.995   0.226   5.296
 7158OM     OM1 7158   7.578   8.660   1.412
 7159OM     OM1 7159   7.701   8.458   1.290
 7160OM     OM1 7160   7.444   8.521   1.242
 7161OM     OM1 7161   7.649   8.678   1.165
 7162OM     OM1 7162   1.829   0.618   6.534
 7163OM     OM1 7163   1.897   0.554   6.769
 7164OM     OM1 7164   2.719   0.661   8.796
 7165OM     OM1 7165   2.949   0.618   8.918
 7166OM     OM1 7166   2.744   0.685   9.057
 7167OM     OM1 7167   7.119   0.426   0.634
 7168OM     OM1 7168   7.394   1.089   4.490
 7169OM     OM1 7169   7.446   1.096   4.234
 7170OM     OM1 7170   7.589   1.228   4.403
 7171OM     OM1 7171   7.279   8.420   6.966
 7172OM     OM1 7172   4.333   9.060   6.138
 7173OM     OM1 7173   4.271   9.060   5.884
 7174OM     OM1 7174   4.087   9.065   6.068
 7175OM     OM1 7175   7.006   9.167   5.060
 7176OM     OM1 7176   7.082   8.917   5.009
 7177OM     OM1 7177   6.904   9.048   4.861
 7178OM     OM1 7178   7.830   0.360   4.561
 7179OM     OM1 7179   7.960   0.172   4.457
 7180OM     OM1 7180   3.737   8.283   2.647
 7181OM     OM1 7181   5.407   1.043   8.527
 7182OM     OM1 7182   5.409   1.061   8.267
 7183OM     OM1 7183   0.506   9.493   2.276
 7184OM     OM1 7184   2.371   1.120   9.358
 7185OM     OM1 7185   2.591   1.034   9.454
 7186OM     OM1 7186   5.388   9.004   8.032
 7187OM     OM1 7187   5.210   8.806   7.963
 7188OM     OM1 7188   5.430   8.861   7.828
 7189OM     OM1 7189   5.440   8.761   8.074
 7190OM     OM1 7190   8.394   9.073   3.494
 7191OM     OM1 7191   8.223   8.988   3.294
 7192OM     OM1 7192   8.137   9.108   3.497
 7193OM     OM1 7193   8.243   8.874   3.536
 7194OM     OM1 7194   3.737   1.084   5.949
 7195OM     OM1 7195   3.546   1.029   6.107
 7196OM     OM1 7196   3.547   9.266   6.559
 7197OM     OM1 7197   3.745   9.421   6.568
 7198OM     OM1 7198   4.296   8.339   6.974
 7199OM     OM1 7199   5.539   8.611   1.305
 7200OM     OM1 7200   5.342   8.450   1.383
 7201OM     OM1 7201   3.029   9.154   7.799
 7202OM     OM1 7202   2.932   9.349   7.950
 7203OM     OM1 7203   6.270   0.759   8.830
 7204OM     OM1 7204   6.093   0.962   8.825
 7205OM     OM1 7205   2.413   0.602   1.227
 7206OM     OM1 7206   2.380   0.354   1.318
 7207OM     OM1 7207   5.866   9.221   4.714
 7208OM     OM1 7208   5.966   8.988   4.753
 7209OM     OM1 7209   2.680   8.371   6.902
 7210OM     OM1 7210   7.180   9.485   9.603
 7211OM     OM1 7211   7.442   9.472   9.559
 7212OM     OM1 7212   7.258   9.482   9.366
 7213OM     OM1 7213   1.584   9.480   3.819
 7214OM     OM1 7214   5.952   0.038   3.840
 7215OM     OM1 7215   6.225   0.113   3.836
 7216OM     OM1 7216   6.054   9.419   3.883
 7217OM     OM1 7217   5.638   1.281   2.952
 7218OM     OM1 7218   6.072   8.467   5.784
 7219OM     OM1 7219   5.861   8.420   5.656
 7220OM     OM1 7220   5.841   8.492   5.910
 7221OM     OM1 7221   5.899   8.669   5.737
 7222OM     OM1 7222   1.183   1.097   0.242
 7223OM     OM1 7223   1.176   1.289   0.407
 7224OM     OM1 7224   2.484   8.624   6.030
 7225OM     OM1 7225   2.666   8.693   5.857
 7226OM     OM1 7226   2.920   8.638   5.837
 7227OM     OM1 7227   1.015   0.255   1.664
 7228OM     OM1 7228   1.356   0.786   8.074
 7229OM     OM1 7229   1.127   0.920   7.985
 7230OM     OM1 7230   1.111   0.734   8.144
 7231OM     OM1 7231   1.201   0.703   7.887
 7232OM     OM1 7232   7.597   8.542   2.608
 7233OM     OM1 7233   7.596   8.807   2.594
 7234OM     OM1 7234   7.379   8.667   2.631
 7235OM     OM1 7235   2.898   9.428   1.325
 7236OM     OM1 7236   3.030   9.525   1.136
 7237OM     OM1 7237   3.057   0.296   1.321
 7238OM     OM1 7238   7.398   0.759   2.399
 7239OM     OM1 7239   7.371   0.699   2.648
 7240OM     OM1 7240   0.764   9.183   1.779
 7241OM     OM1 7241   0.570   9.341   1.756
 7242OM     OM1 7242   0.334   9.442   1.807
 7243OM     OM1 7243   7.065   8.882   2.119
 7244OM     OM1 7244   6.851   8.775   2.025
 7245OM     OM1 7245   4.701   0.975   9.112
 7246OM     OM1 7246   4.694   0.858   8.888
 7247OM     OM1 7247   3.102   8.607   4.304
 7248OM     OM1 7248   2.868   8.519   4.354
 7249OM     OM1 7249   2.991   8.657   4.537
 7250OM     OM1 7250   3.080   8.415   4.478
 7251OM     OM1 7251   1.975   8.757   1.174
 7252OM     OM1 7252   1.845   8.963   1.111
 7253OM     OM1 7253   8.328   8.725   3.743
 7254OM     OM1 7254   1.052   0.941   0.844
 7255OM     OM1 7255   9.593   8.595   9.360
 7256OM     OM1 7256   9.440   8.753   9.488
 7257OM     OM1 7257   6.425   1.284   2.067
 7258OM     OM1 7258   2.216   8.920   0.110
 7259OM     OM1 7259   2.263   9.179   0.096
 7260OM     OM1 7260   9.513   8.845   4.097
 7261OM     OM1 7261   9.464   9.062   3.977
 7262OM     OM1 7262   4.951   8.424   5.388
 7263OM     OM1 7263   4.821   8.337   5.182
 7264OM     OM1 7264   5.070   8.399   5.150
 7265OM     OM1 7265   7.423   0.420   5.530
 7266OM     OM1 7266   7.393   0.631   5.389
 7267OM     OM1 7267   2.299   8.553   4.260
 7268OM     OM1 7268   0.038   1.315   8.923
 7269OM     OM1 7269   6.637   0.571   2.571
 7270OM     OM1 7270   6.504   0.382   2.462
 7271OM     OM1 7271   7.999   9.148   5.383
 7272OM     OM1 7272   8.099   9.001   5.192
 7273OM     OM1 7273   8.140   9.249   5.181
 7274OM     OM1 7274   8.247   9.113   5.386
 7275OM     OM1 7275   9.012   0.143   1.303
 7276OM     OM1 7276   9.239   0.073   1.216
 7277OM     OM1 7277   8.108   0.739   0.881
 7278OM     OM1 7278   7.941   1.176   0.843
 7279OM     OM1 7279   8.049   0.959   0.762
 7280OM     OM1 7280   7.789   0.967   0.802
 7281OM     OM1 7281   1.124   9.139   9.031
 7282OM     OM1 7282   1.180   9.371   8.921
 7283OM     OM1 7283   1.059   9.467   9.401
 7284OM     OM1 7284   0.123   1.099   9.038
 7285OM     OM1 7285   0.287   1.295   8.970
 7286OM     OM1 7286   0.106   1.329   9.169
 7287OM     OM1 7287   1.321   1.321   0.634
 7288OM     OM1 7288   1.188   1.426   0.829
 7289OM     OM1 7289   4.506   8.706   0.020
 7290OM     OM1 7290   4.395   8.820   9.415
 7291OM     OM1 7291   4.440   8.491   9.495
 7292OM     OM1 7292   8.927   9.395   3.678
 7293OM     OM1 7293   8.703   9.375   3.784
 7294OM     OM1 7294   8.846   9.582   3.862
 7295OM     OM1 7295   5.472   0.325   0.406
 7296OM     OM1 7296   5.544   0.459   0.620
 7297OM     OM1 7297   5.291   0.425   0.566
 7298OM     OM1 7298   4.334   9.571   7.356
 7299OM     OM1 7299   4.142   0.118   7.444
 7300OM     OM1 7300   4.222   0.166   7.206
 7301OM     OM1 7301   5.292   8.292   1.587
 7302OM     OM1 7302   5.151   8.170   1.770
 7303OM     OM1 7303   0.512   8.925   2.096
 7304OM     OM1 7304   0.570   9.002   1.851
 7305OM     OM1 7305   0.345   9.076   1.948
 7306OM     OM1 7306   0.633   9.238   4.579
 7307OM     OM1 7307   0.616   8.996   4.695
 7308OM     OM1 7308   0.804   9.039   4.523
 7309OM     OM1 7309   5.428   8.326   2.367
 7310OM     OM1 7310   5.292   8.340   2.588
 7311OM     OM1 7311   5.553   8.255   2.583
 7312OM     OM1 7312   5.490   8.499   2.561
 7313OM     OM1 7313   5.560   0.729   7.951
 7314OM     OM1 7314   5.469   0.512   7.853
 7315OM     OM1 7315   6.102   0.691   7.643
 7316OM     OM1 7316   6.329   0.763   7.764
 7317OM     OM1 7317   3.178   0.969   9.061
 7318OM     OM1 7318   3.299   0.776   8.924
 7319OM     OM1 7319   0.596   0.788   4.369
 7320OM     OM1 7320   0.404   0.785   4.188
 7321OM     OM1 7321   5.803   8.957   1.529
 7322OM     OM1 7322   5.581   9.022   1.434
 7323OM     OM1 7323   0.405   0.746   6.981
 7324OM     OM1 7324   0.253   0.539   7.042
 7325OM     OM1 7325   0.535   0.604   6.806
 7326OM     OM1 7326   7.742   9.229   4.306
 7327OM     OM1 7327   7.590   9.123   4.638
 7328OM     OM1 7328   7.753   9.298   4.564
 7329OM     OM1 7329   1.039   0.120   9.413
 7330OM     OM1 7330   5.471   0.059   1.902
 7331OM     OM1 7331   4.126   8.846   1.206
 7332OM     OM1 7332   3.895   8.973   1.217
 7333OM     OM1 7333   3.913   8.762   1.065
 7334OM     OM1 7334   6.996   8.788   7.629
 7335OM     OM1 7335   7.160   8.655   7.489
 7336OM     OM1 7336   7.116   8.584   7.750
 7337OM     OM1 7337   7.259   8.784   7.685
 7338OM     OM1 7338   3.105   9.171   2.329
 7339OM     OM1 7339   3.294   8.984   2.303
 7340OM     OM1 7340   3.076   8.957   2.174
 7341OM     OM1 7341   4.948   8.352   3.147
 7342OM     OM1 7342   4.760   8.308   3.319
 7343OM     OM1 7343   4.768   8.334   3.576
 7344OM     OM1 7344   4.818   8.540   3.423
 7345OM     OM1 7345   8.286   0.825   6.844
 7346OM     OM1 7346   8.146   0.653   6.725
 7347OM     OM1 7347   8.405   0.623   6.741
 7348OM     OM1 7348   0.213   1.002   9.255
 7349OM     OM1 7349   0.092   0.829   9.096
 7350OM     OM1 7350   0.315   0.925   9.024
 7351OM     OM1 7351   4.610   9.236   1.668
 7352OM     OM1 7352   4.663   9.262   1.429
 7353OM     OM1 7353   4.515   9.052   1.498
 7354OM     OM1 7354   2.788   0.230   7.931
 7355OM     OM1 7355   2.974   0.411   7.974
 7356OM     OM1 7356   2.724   0.438   8.064
 7357OM     OM1 7357   1.590   9.443   7.321
 7358OM     OM1 7358   1.213   9.546   7.187
 7359OM     OM1 7359   1.368   9.338   7.240
 7360OM     OM1 7360   4.233   0.254   8.062
 7361OM     OM1 7361   4.453   0.410   8.047
 7362OM     OM1 7362   4.220   0.488   7.958
 7363OM     OM1 7363   1.514   1.367   8.660
 7364OM     OM1 7364   1.318   1.204   8.676
 7365OM     OM1 7365   1.452   1.236   8.884
 7366OM     OM1 7366   0.392   0.405   5.437
 7367OM     OM1 7367   5.253   9.093   2.515
 7368OM     OM1 7368   5.244   8.806   2.869
 7369OM     OM1 7369   0.137   8.390   9.116
 7370OM     OM1 7370   2.670   9.541   3.106
 7371OM     OM1 7371   2.364   9.485   3.344
 7372OM     OM1 7372   2.468   0.043   2.970
 7373OM     OM1 7373   0.614   0.436   9.209
 7374OM     OM1 7374   0.810   0.772   9.465
 7375OM     OM1 7375   8.882   8.524   5.877
 7376OM     OM1 7376   9.083   8.389   5.981
 7377OM     OM1 7377   0.879   0.409   8.292
 7378OM     OM1 7378   0.952   0.157   8.313
 7379OM     OM1 7379   0.975   0.284   8.082
 7380OM     OM1 7380   0.739   0.225   8.176
 7381OM     OM1 7381   6.770   0.515   5.312
 7382OM     OM1 7382   6.587   0.338   5.300
 7383OM     OM1 7383   6.310   0.795   8.121
 7384OM     OM1 7384   2.225   9.377   3.142
 7385OM     OM1 7385   2.268   9.277   2.898
 7386OM     OM1 7386   2.149   9.138   3.082
 7387OM     OM1 7387   2.031   9.340   2.963
 7388OM     OM1 7388   1.463   9.318   8.591
 7389OM     OM1 7389   1.673   9.225   8.735
 7390OM     OM1 7390   8.301   0.321   7.015
 7391OM     OM1 7391   8.176   0.256   7.238
 7392OM     OM1 7392   0.980   8.772   3.304
 7393OM     OM1 7393   1.072   8.826   3.071
 7394OM     OM1 7394   0.849   8.843   5.527
 7395OM     OM1 7395   0.954   8.953   5.320
 7396OM     OM1 7396   1.038   8.713   5.399
 7397OM     OM1 7397   5.617   0.463   2.169
 7398OM     OM1 7398   5.602   0.534   1.921
 7399OM     OM1 7399   9.085   8.350   0.494
 7400OM     OM1 7400   8.877   8.504   0.547
 7401OM     OM1 7401   7.456   9.227   3.804
 7402OM     OM1 7402   7.541   9.302   3.558
 7403OM     OM1 7403   7.578   9.455   3.753
 7404OM     OM1 7404   7.701   9.210   3.732
 7405OM     OM1 7405   5.321   9.388   8.128
 7406OM     OM1 7406   5.542   9.404   8.267
 7407OM     OM1 7407   5.309   9.357   8.372
 7408OM     OM1 7408   2.839   1.064   0.478
 7409OM     OM1 7409   2.984   0.813   0.141
 7410OM     OM1 7410   2.861   0.802   0.522
 7411OM     OM1 7411   0.993   9.469   0.403
 7412OM     OM1 7412   1.238   9.381   0.467
 7413OM     OM1 7413   1.135   9.576   0.593
 7414OM     OM1 7414   8.130   0.664   3.304
 7415OM     OM1 7415   7.080   9.060   8.138
 7416OM     OM1 7416   6.836   8.990   8.195
 7417OM     OM1 7417   8.462   8.526   3.643
 7418OM     OM1 7418   3.537   0.510   6.662
 7419OM     OM1 7419   3.749   0.515   6.792
 7420OM     OM1 7420   3.537   0.445   6.920
 7421OM     OM1 7421   7.287   9.371   5.556
 7422OM     OM1 7422   7.412   9.603   5.542
 7423OM     OM1 7423   3.064   9.191   5.724
 7424OM     OM1 7424   3.009   0.683   9.535
 7425OM     OM1 7425   3.226   0.791   0.026
 7426OM     OM1 7426   3.112   0.592   0.157
 7427OM     OM1 7427   1.307   8.382   6.752
 7428OM     OM1 7428   1.112   8.499   6.880
 7429OM     OM1 7429   1.140   8.521   6.619
 7430OM     OM1 7430   2.806   8.589   4.700
 7431OM     OM1 7431   3.176   8.667   4.941
 7432OM     OM1 7432   2.995   8.755   4.784
 7433OM     OM1 7433   5.724   1.262   7.457
 7434OM     OM1 7434   8.578   0.511   6.222
 7435OM     OM1 7435   8.569   0.582   6.479
 7436OM     OM1 7436   8.554   0.752   6.289
 7437OM     OM1 7437   5.514   9.580   4.690
 7438OM     OM1 7438   5.611   9.548   4.926
 7439OM     OM1 7439   5.474   0.162   4.859
 7440OM     OM1 7440   5.040   8.401   2.668
 7441OM     OM1 7441   5.090   8.338   2.424
 7442OM     OM1 7442   5.225   1.099   8.698
 7443OM     OM1 7443   0.603   9.322   6.248
 7444OM     OM1 7444   0.366   9.432   6.236
 7445OM     OM1 7445   0.567   9.559   6.359
 7446OM     OM1 7446   2.202   8.680   3.598
 7447OM     OM1 7447   3.039   8.765   2.636
 7448OM     OM1 7448   3.244   8.794   2.477
 7449OM     OM1 7449   3.299   8.304   8.071
 7450OM     OM1 7450   3.241   8.553   8.083
 7451OM     OM1 7451   8.903   9.362   9.376
 7452OM     OM1 7452   8.782   8.946   9.499
 7453OM     OM1 7453   8.832   9.088   9.299
 7454OM     OM1 7454   2.952   0.800   2.168
 7455OM     OM1 7455   3.114   0.707   1.983
 7456OM     OM1 7456   3.076   0.970   2.026
 7457OM     OM1 7457   5.078   1.247   4.011
 7458OM     OM1 7458   4.990   1.008   4.048
 7459OM     OM1 7459   0.236   8.638   1.158
 7460OM     OM1 7460   0.104   8.604   1.382
 7461OM     OM1 7461   9.592   8.720   1.195
 7462OM     OM1 7462   5.598   0.592   0.841
 7463OM     OM1 7463   5.570   0.785   1.021
 7464OM     OM1 7464   6.634   8.752   2.175
 7465OM     OM1 7465   6.588   8.706   2.424
 7466OM     OM1 7466   6.381   8.760   2.276
 7467OM     OM1 7467   0.417   9.440   0.355
 7468OM     OM1 7468   0.516   9.214   0.295
 7469OM     OM1 7469   6.019   0.723   8.831
 7470OM     OM1 7470   7.866   8.327   1.449
 7471OM     OM1 7471   1.577   9.094   1.039
 7472OM     OM1 7472   2.169   1.274   6.820
 7473OM     OM1 7473   7.763   9.093   5.319
 7474OM     OM1 7474   0.980   8.569   0.501
 7475OM     OM1 7475   1.084   8.753   0.640
 7476OM     OM1 7476   1.087   8.531   0.747
 7477OM     OM1 7477   0.851   8.626   0.725
 7478OM     OM1 7478   8.384   0.402   8.032
 7479OM     OM1 7479   0.586   0.127   4.196
 7480OM     OM1 7480   0.547   0.063   3.935
 7481OM     OM1 7481   1.163   0.662   5.926
 7482OM     OM1 7482   1.020   0.792   5.760
 7483OM     OM1 7483   0.898   0.600   5.870
 7484OM     OM1 7484   4.359   0.437   4.525
 7485OM     OM1 7485   3.012   8.449   2.039
 7486OM     OM1 7486   2.940   8.490   1.790
 7487OM     OM1 7487   2.139   8.853   6.620
 7488OM     OM1 7488   2.060   8.615   6.589
 7489OM     OM1 7489   2.184   8.745   6.392
 7490OM     OM1 7490   9.257   8.351   0.686
 7491OM     OM1 7491   9.258   8.606   0.625
 7492OM     OM1 7492   9.218   8.529   0.874
 7493OM     OM1 7493   3.284   1.276   8.786
 7494OM     OM1 7494   3.261   1.032   8.682
 7495OM     OM1 7495   1.375   0.781   6.502
 7496OM     OM1 7496   1.131   0.779   6.401
 7497OM     OM1 7497   6.845   0.988   4.859
 7498OM     OM1 7498   3.171   9.595   9.605
 7499OM     OM1 7499   3.195   0.161   0.208
 7500OM     OM1 7500   3.392   0.004   0.142
 7501OM     OM1 7501   3.167   9.510   0.242
 7502OM     OM1 7502   5.951   9.315   2.570
 7503OM     OM1 7503   6.196   9.314   2.678
 7504OM     OM1 7504   5.991   9.300   2.820
 7505OM     OM1 7505   9.564   8.821   7.524
 7506OM     OM1 7506   0.070   8.828   7.749
 7507OM     OM1 7507   6.016   8.816   7.379
 7508OM     OM1 7508   6.229   8.689   7.442
 7509OM     OM1 7509   6.307   8.473   7.314
 7510OM     OM1 7510   4.153   1.436   7.857
 7511OM     OM1 7511   6.424   0.661   3.219
 7512OM     OM1 7512   6.277   0.723   2.993
 7513OM     OM1 7513   8.502   0.727   5.017
 7514OM     OM1 7514   8.313   0.588   4.901
 7515OM     OM1 7515   8.338   1.056   4.918
 7516OM     OM1 7516   8.365   0.808   6.137
 7517OM     OM1 7517   8.567   0.982   6.160
 7518OM     OM1 7518   3.122   0.132   9.393
 7519OM     OM1 7519   3.164   0.382   9.292
 7520OM     OM1 7520   4.584   9.356   6.497
 7521OM     OM1 7521   4.444   9.217   6.323
 7522OM     OM1 7522   4.207   9.098   6.359
 7523OM     OM1 7523   7.189   8.799   0.646
 7524OM     OM1 7524   6.970   8.694   0.723
 7525OM     OM1 7525   7.154   8.543   0.600
 7526OM     OM1 7526   6.048   9.517   6.163
 7527OM     OM1 7527   6.120   9.584   5.917
 7528OM     OM1 7528   6.628   8.369   8.126
 7529OM     OM1 7529   6.715   8.385   8.374
 7530OM     OM1 7530   8.664   9.465   5.229
 7531OM     OM1 7531   8.475   9.474   5.424
 7532OM     OM1 7532   8.612   0.076   5.349
 7533OM     OM1 7533   5.788   0.960   8.460
 7534OM     OM1 7534   5.934   1.074   8.657
 7535OM     OM1 7535   0.016   0.479   2.733
 7536OM     OM1 7536   3.205   9.285   8.246
 7537OM     OM1 7537   3.462   9.264   8.228
 7538OM     OM1 7538   8.360   0.060   4.891
 7539OM     OM1 7539   6.973   0.916   4.623
 7540OM     OM1 7540   6.889   0.737   4.763
 7541OM     OM1 7541   5.692   9.408   3.325
 7542OM     OM1 7542   5.497   9.521   3.204
 7543OM     OM1 7543   5.513   9.261   3.203
 7544OM     OM1 7544   7.178   9.055   9.359
 7545OM     OM1 7545   2.548   0.914   2.988
 7546OM     OM1 7546   2.793   0.903   3.061
 7547OM     OM1 7547   9.389   8.646   3.614
 7548OM     OM1 7548   3.777   0.442   6.292
 7549OM     OM1 7549   3.832   0.528   6.537
 7550OM     OM1 7550   3.937   0.646   6.333
 7551OM     OM1 7551   8.300   8.317   5.141
 7552OM     OM1 7552   8.348   8.551   5.060
 7553OM     OM1 7553   1.444   9.412   6.525
 7554OM     OM1 7554   1.418   9.522   6.757
 7555OM     OM1 7555   6.396   8.929   8.693
 7556OM     OM1 7556   0.690   0.746   5.843
 7557OM     OM1 7557   0.794   0.624   5.633
 7558OM     OM1 7558   0.658   0.489   5.802
 7559OM     OM1 7559   5.908   8.338   3.835
 7560OM     OM1 7560   1.027   0.545   4.898
 7561OM     OM1 7561   0.959   0.464   5.148
 7562OM     OM1 7562   0.910   0.323   4.940
 7563OM     OM1 7563   1.159   0.358   5.016
 7564OM     OM1 7564   9.514   0.241   7.641
 7565OM     OM1 7565   0.058   0.200   7.846
 7566OM     OM1 7566   7.657   0.098   3.777
 7567OM     OM1 7567   1.660   0.982   7.370
 7568OM     OM1 7568   1.545   1.183   7.250
 7569OM     OM1 7569   1.709   0.725   7.380
 7570OM     OM1 7570   6.341   9.321   9.402
 7571OM     OM1 7571   6.087   9.389   9.394
 7572OM     OM1 7572   5.985   9.156   9.430
 7573OM     OM1 7573   1.534   0.834   4.714
 7574OM     OM1 7574   1.535   0.581   4.753
 7575OM     OM1 7575   1.762   0.685   4.696
 7576OM     OM1 7576   8.888   9.095   1.556
 7577OM     OM1 7577   8.754   9.194   1.358
 7578OM     OM1 7578   4.398   0.537   3.092
 7579OM     OM1 7579   1.936   8.537   9.280
 7580OM     OM1 7580   1.816   8.381   9.117
 7581OM     OM1 7581   1.990   8.546   9.019
 7582OM     OM1 7582   2.627   8.715   8.725
 7583OM     OM1 7583   2.528   9.232   1.471
 7584OM     OM1 7584   0.414   0.566   5.840
 7585OM     OM1 7585   0.173   0.566   5.919
 7586OM     OM1 7586   5.532   8.601   8.256
 7587OM     OM1 7587   5.413   8.834   8.329
 7588OM     OM1 7588   4.762   9.461   1.673
 7589OM     OM1 7589   4.507   9.474   1.641
 7590OM     OM1 7590   4.600   9.388   1.870
 7591OM     OM1 7591   8.114   9.493   5.133
 7592OM     OM1 7592   8.229   9.547   5.373
 7593OM     OM1 7593   8.342   9.601   5.147
 7594OM     OM1 7594   7.789   8.677   7.269
 7595OM     OM1 7595   7.624   8.867   7.199
 7596OM     OM1 7596   7.713   8.665   7.030
 7597OM     OM1 7597   5.207   8.454   6.696
 7598OM     OM1 7598   4.946   8.408   6.599
 7599OM     OM1 7599   2.540   0.651   2.974
 7600OM     OM1 7600   2.710   0.445   2.987
 7601OM     OM1 7601   7.396   0.528   6.687
 7602OM     OM1 7602   7.425   0.400   6.919
 7603OM     OM1 7603   4.098   8.877   3.192
 7604OM     OM1 7604   4.297   8.731   3.515
 7605OM     OM1 7605   4.289   8.703   3.252
 7606OM     OM1 7606   4.092   8.641   3.388
 7607OM     OM1 7607   9.243   9.078   6.870
 7608OM     OM1 7608   3.008   8.958   0.334
 7609OM     OM1 7609   3.247   8.932   0.422
 7610OM     OM1 7610   7.315   0.741   6.783
 7611OM     OM1 7611   1.540   1.106   4.359
 7612OM     OM1 7612   3.081   0.773   3.486
 7613OM     OM1 7613   3.102   1.024   3.360
 7614OM     OM1 7614   3.330   1.129   3.323
 7615OM     OM1 7615   3.594   8.804   7.083
 7616OM     OM1 7616   3.460   8.847   7.306
 7617OM     OM1 7617   3.347   8.863   7.062
 7618OM     OM1 7618   3.510   8.686   3.233
 7619OM     OM1 7619   3.382   8.893   3.160
 7620OM     OM1 7620   3.358   8.815   3.408
 7621OM     OM1 7621   7.801   0.560   0.258
 7622OM     OM1 7622   7.648   0.759   0.278
 7623OM     OM1 7623   7.772   0.653   0.499
 7624OM     OM1 7624   2.656   8.195   0.961
 7625OM     OM1 7625   2.876   8.279   0.839
 7626OM     OM1 7626   2.788   8.395   1.058
 7627OM     OM1 7627   2.933   8.298   6.888
 7628OM     OM1 7628   2.818   8.383   6.677
 7629OM     OM1 7629   4.818   9.164   2.379
 7630OM     OM1 7630   4.776   9.056   2.612
 7631OM     OM1 7631   4.787   8.891   2.418
 7632OM     OM1 7632   2.701   8.814   4.302
 7633OM     OM1 7633   2.461   8.744   4.204
 7634OM     OM1 7634   2.513   8.740   4.462
 7635OM     OM1 7635   2.625   8.570   4.291
 7636OM     OM1 7636   6.244   1.253   6.618
 7637OM     OM1 7637   7.482   1.099   7.284
 7638OM     OM1 7638   7.683   1.169   7.143
 7639OM     OM1 7639   7.721   1.103   7.406
 7640OM     OM1 7640   5.464   0.742   1.972
 7641OM     OM1 7641   5.719   0.769   1.926
 7642OM     OM1 7642   2.325   9.493   0.941
 7643OM     OM1 7643   2.128   9.380   0.797
 7644OM     OM1 7644   7.762   8.672   5.145
 7645OM     OM1 7645   7.802   8.781   4.913
 7646OM     OM1 7646   7.627   8.701   4.744
 7647OM     OM1 7647   8.037   9.572   3.525
 7648OM     OM1 7648   8.250   9.567   3.672
 7649OM     OM1 7649   5.567   0.374   2.768
 7650OM     OM1 7650   5.557   0.593   2.918
 7651OM     OM1 7651   7.971   0.080   2.015
 7652OM     OM1 7652   7.995   9.461   2.144
 7653OM     OM1 7653   7.968   0.075   2.280
 7654OM     OM1 7654   6.941   0.535   3.318
 7655OM     OM1 7655   0.706   9.173   4.155
 7656OM     OM1 7656   0.362   8.888   3.960
 7657OM     OM1 7657   1.318   8.476   1.260
 7658OM     OM1 7658   1.240   8.675   0.913
 7659OM     OM1 7659   8.303   8.761   0.812
 7660OM     OM1 7660   8.061   8.815   0.904
 7661OM     OM1 7661   0.887   8.311   7.673
 7662OM     OM1 7662   0.637   8.370   7.609
 7663OM     OM1 7663   1.122   8.328   7.783
 7664OM     OM1 7664   8.811   1.266   1.045
 7665OM     OM1 7665   1.779   8.481   7.787
 7666OM     OM1 7666   1.843   8.290   7.636
 7667OM     OM1 7667   5.166   8.756   1.727
 7668OM     OM1 7668   0.471   8.750   1.094
 7669OM     OM1 7669   0.260   8.795   0.844
 7670OM     OM1 7670   3.766   0.747   5.430
 7671OM     OM1 7671   3.329   0.783   5.502
 7672OM     OM1 7672   3.461   0.717   5.299
 7673OM     OM1 7673   3.961   8.745   3.595
 7674OM     OM1 7674   0.076   9.313   2.378
 7675OM     OM1 7675   9.350   9.246   5.334
 7676OM     OM1 7676   9.338   9.331   5.574
 7677OM     OM1 7677   9.415   9.086   5.527
 7678OM     OM1 7678   3.018   8.842   6.955
 7679OM     OM1 7679   3.073   8.596   6.866
 7680OM     OM1 7680   2.959   8.616   7.092
 7681OM     OM1 7681   3.202   0.796   6.502
 7682OM     OM1 7682   3.123   0.615   6.682
 7683OM     OM1 7683   2.175   0.074   9.562
 7684OM     OM1 7684   2.423   9.592   9.586
 7685OM     OM1 7685   2.229   9.438   0.054
 7686OM     OM1 7686   7.165   8.309   8.775
 7687OM     OM1 7687   7.118   8.388   9.487
 7688OM     OM1 7688   7.285   8.491   0.047
 7689OM     OM1 7689   6.386   0.418   2.986
 7690OM     OM1 7690   6.647   0.435   2.928
 7691OM     OM1 7691   2.520   0.632   4.774
 7692OM     OM1 7692   2.742   0.764   4.766
 7693OM     OM1 7693   6.673   9.120   8.040
 7694OM     OM1 7694   6.359   9.154   8.230
 7695OM     OM1 7695   6.607   9.107   8.289
 7696OM     OM1 7696   6.497   9.317   8.399
 7697OM     OM1 7697   8.072   9.114   6.544
 7698OM     OM1 7698   7.862   9.234   6.451
 7699OM     OM1 7699   8.095   9.182   6.805
 7700OM     OM1 7700   7.903   0.243   3.174
 7701OM     OM1 7701   8.081   0.155   2.989
 7702OM     OM1 7702   0.816   0.239   4.240
 7703OM     OM1 7703   0.619   0.304   4.393
 7704OM     OM1 7704   5.154   0.316   3.776
 7705OM     OM1 7705   4.923   0.440   3.797
 7706OM     OM1 7706   9.405   8.821   0.668
 7707OM     OM1 7707   9.326   8.757   0.425
 7708OM     OM1 7708   6.248   1.255   8.347
 7709OM     OM1 7709   6.307   1.043   8.187
 7710OM     OM1 7710   6.068   1.109   8.231
 7711OM     OM1 7711   5.385   8.368   7.886
 7712OM     OM1 7712   5.226   8.384   8.096
 7713OM     OM1 7713   0.286   0.893   3.270
 7714OM     OM1 7714   0.369   1.134   3.341
 7715OM     OM1 7715   6.298   0.540   3.640
 7716OM     OM1 7716   6.297   0.443   3.877
 7717OM     OM1 7717   6.252   0.696   3.846
 7718OM     OM1 7718   3.894   9.200   3.942
 7719OM     OM1 7719   3.696   9.356   3.878
 7720OM     OM1 7720   3.885   9.314   3.704
 7721OM     OM1 7721   9.370   8.767   0.153
 7722OM     OM1 7722   6.602   9.447   2.503
 7723OM     OM1 7723   6.769   9.574   2.341
 7724OM     OM1 7724   6.867   9.443   2.540
 7725OM     OM1 7725   6.733   0.057   2.582
 7726OM     OM1 7726   8.692   1.041   1.059
 7727OM     OM1 7727   8.455   1.000   1.152
 7728OM     OM1 7728   8.614   0.805   1.071
 7729OM     OM1 7729   4.401   1.040   1.213
 7730OM     OM1 7730   4.166   1.118   1.152
 7731OM     OM1 7731   9.514   0.445   9.306
 7732OM     OM1 7732   9.008   1.340   7.548
 7733OM     OM1 7733   9.210   1.208   7.630
 7734OM     OM1 7734   9.148   1.178   7.377
 7735OM     OM1 7735   6.353   0.465   1.401
 7736OM     OM1 7736   6.404   0.229   1.320
 7737OM     OM1 7737   6.512   0.317   1.540
 7738OM     OM1 7738   6.909   0.395   0.804
 7739OM     OM1 7739   6.877   0.290   1.264
 7740OM     OM1 7740   6.703   0.243   0.860
 7741OM     OM1 7741   3.664   8.668   2.225
 7742OM     OM1 7742   3.472   8.601   2.062
 7743OM     OM1 7743   3.419   8.753   2.284
 7744OM     OM1 7744   3.554   8.844   2.088
 7745OM     OM1 7745   4.478   9.336   5.220
 7746OM     OM1 7746   3.564   0.313   1.339
 7747OM     OM1 7747   3.731   0.485   1.430
 7748OM     OM1 7748   3.474   0.458   1.535
 7749OM     OM1 7749   3.664   0.282   1.573
 7750OM     OM1 7750   2.314   9.587   2.766
 7751OM     OM1 7751   2.379   9.348   2.678
 7752OM     OM1 7752   4.382   0.478   1.900
 7753OM     OM1 7753   4.574   0.353   1.790
 7754OM     OM1 7754   4.481   0.287   2.036
 7755OM     OM1 7755   9.199   0.811   5.508
 7756OM     OM1 7756   9.449   0.904   5.537
 7757OM     OM1 7757   9.269   0.910   5.728
 7758OM     OM1 7758   5.297   0.830   7.104
 7759OM     OM1 7759   5.132   0.965   7.416
 7760OM     OM1 7760   7.426   0.451   9.279
 7761OM     OM1 7761   7.696   0.180   9.560
 7762OM     OM1 7762   1.116   1.107   8.805
 7763OM     OM1 7763   1.081   1.263   8.600
 7764OM     OM1 7764   0.903   1.004   8.717
 7765OM     OM1 7765   8.880   8.760   0.594
 7766OM     OM1 7766   8.877   8.756   0.206
 7767OM     OM1 7767   9.133   8.780   0.265
 7768OM     OM1 7768   5.292   9.287   2.349
 7769OM     OM1 7769   6.335   8.395   4.897
 7770OM     OM1 7770   6.317   8.231   5.112
 7771OM     OM1 7771   3.893   1.238   0.872
 7772OM     OM1 7772   3.831   1.276   0.627
 7773OM     OM1 7773   3.852   1.035   0.712
 7774OM     OM1 7774   9.003   0.665   7.125
 7775OM     OM1 7775   9.154   0.443   6.814
 7776OM     OM1 7776   9.211   0.651   6.969
 7777OM     OM1 7777   8.144   0.735   6.017
 7778OM     OM1 7778   2.361   0.495   8.855
 7779OM     OM1 7779   2.519   0.555   9.052
 7780OM     OM1 7780   7.964   9.307   4.413
 7781OM     OM1 7781   7.773   9.230   4.817
 7782OM     OM1 7782   7.853   9.075   4.489
 7783OM     OM1 7783   1.212   1.223   8.386
 7784OM     OM1 7784   0.946   0.996   8.152
 7785OM     OM1 7785   0.964   1.159   8.371
 7786OM     OM1 7786   7.368   0.907   4.076
 7787OM     OM1 7787   7.626   0.949   4.092
 7788OM     OM1 7788   8.993   8.404   0.944
 7789OM     OM1 7789   9.019   8.654   1.010
 7790OM     OM1 7790   9.000   8.587   0.760
 7791OM     OM1 7791   2.827   0.214   2.725
 7792OM     OM1 7792   8.570   9.104   9.276
 7793OM     OM1 7793   9.005   9.432   4.917
 7794OM     OM1 7794   8.994   0.076   4.884
 7795OM     OM1 7795   8.844   9.580   5.069
 7796OM     OM1 7796   1.496   0.478   5.541
 7797OM     OM1 7797   1.734   0.521   5.469
 7798OM     OM1 7798   5.451   9.213   7.898
 7799OM     OM1 7799   5.559   9.187   8.140
 7800OM     OM1 7800   8.875   1.249   3.177
 7801OM     OM1 7801   9.497   0.748   5.134
 7802OM     OM1 7802   0.044   0.640   4.965
 7803OM     OM1 7803   7.825   0.589   4.415
 7804OM     OM1 7804   6.621   0.597   4.787
 7805OM     OM1 7805   8.412   1.450   9.197
 7806OM     OM1 7806   8.360   1.326   8.981
 7807OM     OM1 7807   8.308   8.285   4.543
 7808OM     OM1 7808   2.568   9.333   0.653
 7809OM     OM1 7809   2.586   9.175   0.439
 7810OM     OM1 7810   2.489   9.084   0.664
 7811OM     OM1 7811   2.353   9.258   0.525
 7812OM     OM1 7812   1.332   1.259   4.354
 7813OM     OM1 7813   1.409   1.383   4.568
 7814OM     OM1 7814   0.079   8.913   1.351
 7815OM     OM1 7815   0.299   8.836   1.469
 7816OM     OM1 7816   2.343   8.761   8.075
 7817OM     OM1 7817   2.187   8.902   8.221
 7818OM     OM1 7818   4.091   1.311   6.370
 7819OM     OM1 7819   3.929   1.106   6.359
 7820OM     OM1 7820   5.339   0.204   3.623
 7821OM     OM1 7821   2.219   9.391   3.872
 7822OM     OM1 7822   2.175   9.184   4.039
 7823OM     OM1 7823   0.134   9.578   7.906
 7824OM     OM1 7824   0.229   0.092   7.685
 7825OM     OM1 7825   0.309   0.168   7.927
 7826OM     OM1 7826   0.374   0.371   2.729
 7827OM     OM1 7827   0.466   0.278   2.491
 7828OM     OM1 7828   7.893   0.321   0.206
 7829OM     OM1 7829   7.885   0.086   0.099
 7830OM     OM1 7830   2.186   8.879   3.129
 7831OM     OM1 7831   2.214   9.056   3.319
 7832OM     OM1 7832   5.808   0.823   2.901
 7833OM     OM1 7833   5.764   0.638   3.069
 7834OM     OM1 7834   4.368   1.124   5.412
 7835OM     OM1 7835   4.205   1.194   5.608
 7836OM     OM1 7836   4.464   1.192   5.649
 7837OM     OM1 7837   6.225   9.216   6.850
 7838OM     OM1 7838   6.347   9.445   6.865
 7839OM     OM1 7839   4.231   9.147   5.636
 7840OM     OM1 7840   4.041   0.008   0.722
 7841OM     OM1 7841   4.049   0.245   0.831
 7842OM     OM1 7842   6.469   8.293   0.120
 7843OM     OM1 7843   0.947   8.280   7.329
 7844OM     OM1 7844   0.679   8.346   7.361
 7845OM     OM1 7845   0.845   8.476   7.207
 7846OM     OM1 7846   9.568   1.006   1.062
 7847OM     OM1 7847   0.134   0.853   1.189
 7848OM     OM1 7848   9.561   0.864   1.378
 7849OM     OM1 7849   0.186   1.000   1.391
 7850OM     OM1 7850   0.126   8.706   4.098
 7851OM     OM1 7851   0.023   8.345   4.148
 7852OM     OM1 7852   0.117   8.482   3.955
 7853OM     OM1 7853   6.839   0.214   7.084
 7854OM     OM1 7854   3.866   0.885   7.681
 7855OM     OM1 7855   4.033   0.940   7.858
 7856OM     OM1 7856   1.751   0.591   6.287
 7857OM     OM1 7857   1.576   0.614   6.481
 7858OM     OM1 7858   1.724   0.820   6.416
 7859OM     OM1 7859   5.136   1.326   3.174
 7860OM     OM1 7860   4.958   8.333   7.692
 7861OM     OM1 7861   5.203   8.456   7.719
 7862OM     OM1 7862   0.630   1.139   9.383
 7863OM     OM1 7863   0.635   1.269   9.152
 7864OM     OM1 7864   0.431   1.129   9.233
 7865OM     OM1 7865   2.180   0.802   0.614
 7866OM     OM1 7866   2.309   0.606   0.739
 7867OM     OM1 7867   2.065   0.577   0.644
 7868OM     OM1 7868   2.117   0.728   0.859
 7869OM     OM1 7869   3.119   8.910   7.761
 7870OM     OM1 7870   3.138   9.099   7.569
 7871OM     OM1 7871   4.681   9.233   4.521
 7872OM     OM1 7872   4.705   9.243   4.779
 7873OM     OM1 7873   8.439   8.686   6.178
 7874OM     OM1 7874   8.614   8.523   6.271
 7875OM     OM1 7875   9.401   0.812   7.778
 7876OM     OM1 7876   9.399   0.904   8.029
 7877OM     OM1 7877   9.309   1.053   7.830
 7878OM     OM1 7878   3.674   0.985   1.729
 7879OM     OM1 7879   3.556   0.947   1.964
 7880OM     OM1 7880   3.705   0.760   1.867
 7881OM     OM1 7881   3.690   0.312   5.800
 7882OM     OM1 7882   3.688   0.096   5.643
 7883OM     OM1 7883   2.202   8.991   2.263
 7884OM     OM1 7884   2.079   8.841   2.086
 7885OM     OM1 7885   2.240   9.024   2.004
 7886OM     OM1 7886   4.683   0.357   3.739
 7887OM     OM1 7887   4.517   0.175   3.669
 7888OM     OM1 7888   4.440   0.374   3.832
 7889OM     OM1 7889   5.562   9.125   1.191
 7890OM     OM1 7890   5.551   9.353   1.058
 7891OM     OM1 7891   5.390   9.146   1.004
 7892OM     OM1 7892   5.529   8.733   6.675
 7893OM     OM1 7893   5.550   8.700   6.931
 7894OM     OM1 7894   5.698   8.878   6.811
 7895OM     OM1 7895   1.980   1.121   6.718
 7896OM     OM1 7896   1.796   1.043   6.539
 7897OM     OM1 7897   1.767   1.258   6.681
 7898OM     OM1 7898   8.656   0.598   8.532
 7899OM     OM1 7899   8.559   0.725   8.312
 7900OM     OM1 7900   8.710   0.519   8.290
 7901OM     OM1 7901   2.944   0.592   0.632
 7902OM     OM1 7902   8.496   9.516   4.099
 7903OM     OM1 7903   8.581   9.400   4.315
 7904OM     OM1 7904   9.373   9.262   0.603
 7905OM     OM1 7905   9.527   9.049   0.628
 7906OM     OM1 7906   8.004   0.193   9.005
 7907OM     OM1 7907   8.027   0.142   9.266
 7908OM     OM1 7908   3.322   1.347   7.167
 7909OM     OM1 7909   2.014   8.385   8.521
 7910OM     OM1 7910   2.208   8.450   8.366
 7911OM     OM1 7911   7.934   0.619   2.698
 7912OM     OM1 7912   7.810   0.770   2.874
 7913OM     OM1 7913   4.281   0.969   7.953
 7914OM     OM1 7914   4.097   0.834   8.070
 7915OM     OM1 7915   4.201   0.737   7.851
 7916OM     OM1 7916   5.517   0.573   4.164
 7917OM     OM1 7917   5.385   0.414   4.015
 7918OM     OM1 7918   2.924   0.418   0.213
 7919OM     OM1 7919   2.978   0.602   0.381
 7920OM     OM1 7920   3.150   0.398   0.331
 7921OM     OM1 7921   0.007   8.792   3.632
 7922OM     OM1 7922   9.460   8.815   3.423
 7923OM     OM1 7923   6.274   9.383   1.506
 7924OM     OM1 7924   6.143   9.289   1.716
 7925OM     OM1 7925   6.047   9.261   1.463
 7926OM     OM1 7926   1.558   8.699   7.544
 7927OM     OM1 7927   2.815   0.919   6.134
 7928OM     OM1 7928   2.561   0.836   6.169
 7929OM     OM1 7929   0.106   9.532   6.796
 7930OM     OM1 7930   0.297   0.047   6.677
 7931OM     OM1 7931   0.049   0.081   6.588
 7932OM     OM1 7932   6.991   8.545   4.717
 7933OM     OM1 7933   6.847   8.366   4.593
 7934OM     OM1 7934   5.000   0.560   2.043
 7935OM     OM1 7935   4.753   0.635   2.117
 7936OM     OM1 7936   4.862   0.736   1.907
 7937OM     OM1 7937   5.900   8.974   6.937
 7938OM     OM1 7938   5.879   8.722   6.918
 7939OM     OM1 7939   5.941   8.863   6.705
 7940OM     OM1 7940   2.221   8.731   0.288
 7941OM     OM1 7941   2.367   8.627   0.470
 7942OM     OM1 7942   8.369   0.786   5.891
 7943OM     OM1 7943   7.321   0.503   2.808
 7944OM     OM1 7944   7.432   0.731   2.896
 7945OM     OM1 7945   2.918   8.413   6.434
 7946OM     OM1 7946   6.714   8.887   2.727
 7947OM     OM1 7947   6.924   8.746   2.807
 7948OM     OM1 7948   6.782   8.676   2.599
 7949OM     OM1 7949   8.488   9.050   7.903
 7950OM     OM1 7950   3.672   8.764   0.667
 7951OM     OM1 7951   8.321   9.148   8.436
 7952OM     OM1 7952   8.109   9.021   8.322
 7953OM     OM1 7953   8.347   8.908   8.342
 7954OM     OM1 7954   4.666   8.570   1.295
 7955OM     OM1 7955   6.307   9.551   7.732
 7956OM     OM1 7956   5.048   1.102   6.314
 7957OM     OM1 7957   5.624   0.604   4.838
 7958OM     OM1 7958   5.697   0.526   4.594
 7959OM     OM1 7959   5.858   0.498   4.802
 7960OM     OM1 7960   8.334   9.414   6.073
 7961OM     OM1 7961   8.312   9.164   6.125
 7962OM     OM1 7962   4.225   9.429   4.570
 7963OM     OM1 7963   4.791   0.532   6.095
 7964OM     OM1 7964   4.862   0.767   6.025
 7965OM     OM1 7965   4.602   0.669   5.996
 7966OM     OM1 7966   4.795   0.589   5.842
 7967OM     OM1 7967   1.611   0.325   7.278
 7968OM     OM1 7968   1.782   0.531   7.234
 7969OM     OM1 7969   8.252   9.015   4.468
 7970OM     OM1 7970   8.205   9.253   4.370
 7971OM     OM1 7971   8.104   9.028   4.264
 7972OM     OM1 7972   8.227   9.077   1.541
 7973OM     OM1 7973   8.092   9.153   1.746
 7974OM     OM1 7974   8.290   9.298   1.665
 7975OM     OM1 7975   6.211   9.078   4.735
 7976OM     OM1 7976   6.165   8.831   4.817
 7977OM     OM1 7977   3.019   9.115   7.333
 7978OM     OM1 7978   2.327   1.270   5.612
 7979OM     OM1 7979   2.590   1.293   5.610
 7980OM     OM1 7980   2.450   1.373   5.402
 7981OM     OM1 7981   1.500   1.197   1.115
 7982OM     OM1 7982   3.325   9.318   1.094
 7983OM     OM1 7983   3.395   9.445   1.315
 7984OM     OM1 7984   6.324   9.553   2.987
 7985OM     OM1 7985   6.356   9.326   3.114
 7986OM     OM1 7986   1.691   9.567   8.610
 7987OM     OM1 7987   1.919   0.001   8.478
 7988OM     OM1 7988   1.907   9.461   8.690
 7989OM     OM1 7989   9.261   0.907   6.256
 7990OM     OM1 7990   9.261   1.130   6.139
 7991OM     OM1 7991   9.289   1.125   6.402
 7992OM     OM1 7992   1.934   0.414   0.862
 7993OM     OM1 7993   1.846   0.442   0.628
 7994OM     OM1 7994   5.643   9.361   7.555
 7995OM     OM1 7995   4.823   0.305   8.134
 7996OM     OM1 7996   4.690   0.524   8.079
 7997OM     OM1 7997   4.807   0.410   7.884
 7998OM     OM1 7998   2.445   0.776   3.183
 7999OM     OM1 7999   2.443   0.883   3.424
 8000OM     OM1 8000   2.668   0.782   3.314
 8001OM     OM1 8001   5.340   9.154   9.319
 8002OM     OM1 8002   5.178   9.353   9.311
 8003OM     OM1 8003   5.432   9.398   9.244
 8004OM     OM1 8004   4.195   9.075   8.024
 8005OM     OM1 8005   4.200   8.897   7.836
 8006OM     OM1 8006   4.066   9.117   7.798
 8007OM     OM1 8007   3.975   8.946   7.973
 8008OM     OM1 8008   0.432   8.656   1.324
 8009OM     OM1 8009   0.564   8.839   1.457
 8010OM     OM1 8010   7.320   0.891   1.490
 8011OM     OM1 8011   7.263   1.010   1.717
 8012OM     OM1 8012   9.212   8.294   0.226
 8013OM     OM1 8013   9.112   8.300   9.600
 8014OM     OM1 8014   8.289   0.818   4.790
 8015OM     OM1 8015   6.658   8.962   2.027
 8016OM     OM1 8016   6.398   8.988   2.038
 8017OM     OM1 8017   6.532   9.206   2.005
 8018OM     OM1 8018   6.530   9.017   1.819
 8019OM     OM1 8019   0.114   0.775   3.092
 8020OM     OM1 8020   0.018   0.693   2.871
 8021OM     OM1 8021   9.467   0.838   3.036
 8022OM     OM1 8022   9.524   0.599   3.101
 8023OM     OM1 8023   3.389   0.926   8.472
 8024OM     OM1 8024   3.643   0.976   8.469
 8025OM     OM1 8025   6.669   0.211   5.089
 8026OM     OM1 8026   6.912   0.224   5.016
 8027OM     OM1 8027   6.715   0.374   4.892
 8028OM     OM1 8028   3.946   1.084   3.548
 8029OM     OM1 8029   2.692   0.895   4.180
 8030OM     OM1 8030   2.493   1.041   4.070
 8031OM     OM1 8031   2.570   0.800   3.983
 8032OM     OM1 8032   2.715   1.012   3.944
 8033OM     OM1 8033   6.957   9.289   2.725
 8034OM     OM1 8034   6.734   9.146   2.747
 8035OM     OM1 8035   6.822   9.294   2.943
 8036OM     OM1 8036   8.501   9.057   4.665
 8037OM     OM1 8037   8.747   9.117   4.609
 8038OM     OM1 8038   4.296   0.498   2.527
 8039OM     OM1 8039   4.070   0.396   2.606
 8040OM     OM1 8040   1.360   0.407   4.849
 8041OM     OM1 8041   1.329   0.168   4.946
 8042OM     OM1 8042   7.634   0.132   5.590
 8043OM     OM1 8043   4.859   8.163   0.402
 8044OM     OM1 8044   4.728   8.235   0.596
 8045OM     OM1 8045   0.948   8.230   4.377
 8046OM     OM1 8046   9.570   0.614   1.961
 8047OM     OM1 8047   3.625   8.928   5.702
 8048OM     OM1 8048   3.754   9.054   5.517
 8049OM     OM1 8049   2.191   0.857   5.770
 8050OM     OM1 8050   2.371   1.009   5.902
 8051OM     OM1 8051   6.032   9.278   1.195
 8052OM     OM1 8052   5.948   9.060   1.339
 8053OM     OM1 8053   5.445   8.642   4.882
 8054OM     OM1 8054   5.691   8.573   4.809
 8055OM     OM1 8055   1.866   0.381   2.099
 8056OM     OM1 8056   1.765   0.199   2.250
 8057OM     OM1 8057   1.603   0.374   2.118
 8058OM     OM1 8058   0.281   1.171   7.567
 8059OM     OM1 8059   0.469   1.111   7.733
 8060OM     OM1 8060   9.200   8.703   2.385
 8061OM     OM1 8061   9.031   8.525   2.301
 8062OM     OM1 8062   5.461   8.818   7.577
 8063OM     OM1 8063   5.484   0.504   9.018
 8064OM     OM1 8064   0.975   0.224   2.142
 8065OM     OM1 8065   0.833   0.298   1.934
 8066OM     OM1 8066   1.081   0.218   1.909
 8067OM     OM1 8067   5.597   1.418   6.750
 8068OM     OM1 8068   0.391   0.977   6.596
 8069OM     OM1 8069   0.236   0.868   6.432
 8070OM     OM1 8070   3.881   0.450   0.814
 8071OM     OM1 8071   3.803   0.210   0.769
 8072OM     OM1 8072   4.714   9.337   6.710
 8073OM     OM1 8073   3.155   9.228   3.535
 8074OM     OM1 8074   9.600   9.525   6.396
 8075OM     OM1 8075   8.174   8.921   7.521
 8076OM     OM1 8076   8.427   8.921   7.442
 8077OM     OM1 8077   8.281   9.146   7.456
 8078OM     OM1 8078   5.649   0.547   7.548
 8079OM     OM1 8079   5.711   0.726   7.736
 8080OM     OM1 8080   5.863   0.700   7.526
 8081OM     OM1 8081   7.533   1.340   6.519
 8082OM     OM1 8082   0.809   0.857   0.928
 8083OM     OM1 8083   0.859   0.878   0.673
 8084OM     OM1 8084   1.116   1.188   0.836
 8085OM     OM1 8085   2.270   9.162   1.785
 8086OM     OM1 8086   2.478   9.068   1.931
 8087OM     OM1 8087   8.730   8.719   0.000
 8088OM     OM1 8088   8.715   8.755   9.345
 8089OM     OM1 8089   3.064   0.836   2.777
 8090OM     OM1 8090   3.278   0.941   2.682
 8091OM     OM1 8091   8.653   1.271   0.240
 8092OM     OM1 8092   8.618   1.176   0.008
 8093OM     OM1 8093   8.868   1.245   0.103
 8094OM     OM1 8094   5.470   8.488   6.693
 8095OM     OM1 8095   5.368   8.302   6.850
 8096OM     OM1 8096   7.219   8.449   6.522
 8097OM     OM1 8097   7.367   8.359   6.323
 8098OM     OM1 8098   0.014   0.024   0.100
 8099OM     OM1 8099   0.080   0.401   0.406
 8100OM     OM1 8100   0.192   9.544   0.287
 8101OM     OM1 8101   0.095   0.173   0.290
 8102OM     OM1 8102   7.440   9.456   8.472
 8103OM     OM1 8103   7.268   0.041   8.463
 8104OM     OM1 8104   7.306   9.527   8.686
 8105OM     OM1 8105   0.894   8.444   9.123
 8106OM     OM1 8106   1.123   8.495   9.020
 8107OM     OM1 8107   7.657   8.793   0.474
 8108OM     OM1 8108   0.842   0.206   3.651
 8109OM     OM1 8109   0.897   0.436   3.540
 8110OM     OM1 8110   0.838   0.421   3.799
 8111OM     OM1 8111   6.118   1.145   5.933
 8112OM     OM1 8112   5.912   1.011   5.914
 8113OM     OM1 8113   9.247   0.773   5.027
 8114OM     OM1 8114   9.229   0.541   4.935
 8115OM     OM1 8115   8.868   0.483   5.203
 8116OM     OM1 8116   0.409   8.581   6.914
 8117OM     OM1 8117   0.662   9.356   0.707
 8118OM     OM1 8118   0.512   9.174   0.791
 8119OM     OM1 8119   8.520   0.794   4.301
 8120OM     OM1 8120   8.628   0.802   4.059
 8121OM     OM1 8121   8.394   0.685   4.099
 8122OM     OM1 8122   6.033   0.279   3.909
 8123OM     OM1 8123   1.838   9.042   1.354
 8124OM     OM1 8124   1.787   9.205   1.153
 8125OM     OM1 8125   0.332   9.344   3.465
 8126OM     OM1 8126   0.285   9.596   3.505
 8127OM     OM1 8127   1.795   9.380   8.905
 8128OM     OM1 8128   1.848   9.123   8.914
 8129OM     OM1 8129   1.613   9.209   8.986
 8130OM     OM1 8130   9.474   0.493   4.842
 8131OM     OM1 8131   9.316   0.295   4.926
 8132OM     OM1 8132   1.837   9.066   4.501
 8133OM     OM1 8133   1.943   8.823   4.473
 8134OM     OM1 8134   4.948   1.150   3.234
 8135OM     OM1 8135   5.186   1.072   3.227
 8136OM     OM1 8136   1.165   0.313   7.907
 8137OM     OM1 8137   1.335   0.163   8.028
 8138OM     OM1 8138   1.278   0.403   8.122
 8139OM     OM1 8139   1.158   0.435   4.426
 8140OM     OM1 8140   1.078   0.420   4.671
 8141OM     OM1 8141   1.266   0.249   4.587
 8142OM     OM1 8142   6.925   8.522   8.434
 8143OM     OM1 8143   9.439   8.556   8.022
 8144OM     OM1 8144   9.559   8.653   8.228
 8145OM     OM1 8145   1.707   0.000   7.499
 8146OM     OM1 8146   2.089   0.170   1.708
 8147OM     OM1 8147   2.060   0.181   1.450
 8148OM     OM1 8148   5.799   0.912   6.230
 8149OM     OM1 8149   5.697   0.718   6.111
 8150OM     OM1 8150   1.051   0.861   8.881
 8151OM     OM1 8151   1.364   0.017   3.874
 8152OM     OM1 8152   1.391   9.373   3.959
 8153OM     OM1 8153   6.081   1.230   4.682
 8154OM     OM1 8154   4.236   9.555   2.633
 8155OM     OM1 8155   4.278   0.139   2.827
 8156OM     OM1 8156   4.356   9.350   2.536
 8157OM     OM1 8157   4.367   9.493   2.843
 8158OM     OM1 8158   5.851   8.599   3.836
 8159OM     OM1 8159   6.022   8.491   3.677
 8160OM     OM1 8160   8.440   0.442   2.773
 8161OM     OM1 8161   8.413   0.765   2.854
 8162OM     OM1 8162   8.290   0.626   2.673
 8163OM     OM1 8163   6.042   8.872   1.509
 8164OM     OM1 8164   5.876   8.804   1.323
 8165OM     OM1 8165   3.219   0.065   3.223
 8166OM     OM1 8166   3.036   0.413   3.368
 8167OM     OM1 8167   5.616   0.091   6.297
 8168OM     OM1 8168   0.750   8.808   4.825
 8169OM     OM1 8169   5.606   0.134   5.617
 8170OM     OM1 8170   5.675   0.254   5.390
 8171OM     OM1 8171   5.601   0.005   5.392
 8172OM     OM1 8172   4.537   8.307   5.937
 8173OM     OM1 8173   4.709   8.195   6.096
 8174OM     OM1 8174   4.588   8.391   6.188
 8175OM     OM1 8175   1.011   0.901   6.207
 8176OM     OM1 8176   0.781   0.908   6.314
 8177OM     OM1 8177   0.808   0.864   6.049
 8178OM     OM1 8178   0.845   1.098   6.151
 8179OM     OM1 8179   3.847   9.087   1.532
 8180OM     OM1 8180   3.800   9.291   1.675
 8181OM     OM1 8181   3.883   9.331   1.438
 8182OM     OM1 8182   4.050   9.232   1.617
 8183OM     OM1 8183   6.427   9.513   4.379
 8184OM     OM1 8184   6.610   9.326   4.362
 8185OM     OM1 8185   8.927   9.345   3.162
 8186OM     OM1 8186   8.225   9.409   3.875
 8187OM     OM1 8187   8.382   0.014   3.893
 8188OM     OM1 8188   8.450   9.419   3.740
 8189OM     OM1 8189   1.571   8.924   4.293
 8190OM     OM1 8190   1.388   8.791   4.416
 8191OM     OM1 8191   1.512   8.984   4.550
 8192OM     OM1 8192   5.439   9.232   7.233
 8193OM     OM1 8193   5.333   9.208   7.011
 8194OM     OM1 8194   5.317   9.000   7.164
 8195OM     OM1 8195   0.990   0.115   7.883
 8196OM     OM1 8196   0.918   0.362   7.836
 8197OM     OM1 8197   2.182   0.383   6.735
 8198OM     OM1 8198   4.857   8.229   2.425
 8199OM     OM1 8199   6.896   0.186   0.160
 8200OM     OM1 8200   6.667   0.106   0.218
 8201OM     OM1 8201   6.832   0.158   0.412
 8202OM     OM1 8202   3.657   0.018   0.167
 8203OM     OM1 8203   8.168   8.822   3.111
 8204OM     OM1 8204   8.059   9.063   3.089
 8205OM     OM1 8205   4.278   9.032   4.228
 8206OM     OM1 8206   4.043   9.057   4.111
 8207OM     OM1 8207   4.261   9.121   3.986
 8208OM     OM1 8208   2.894   9.205   4.926
 8209OM     OM1 8209   2.996   9.389   5.073
 8210OM     OM1 8210   3.208   8.450   8.707
 8211OM     OM1 8211   5.111   0.621   0.565
 8212OM     OM1 8212   5.715   8.369   4.221
 8213OM     OM1 8213   5.826   8.395   4.675
 8214OM     OM1 8214   3.250   9.055   3.007
 8215OM     OM1 8215   3.509   8.992   2.969
 8216OM     OM1 8216   7.346   9.105   8.145
 8217OM     OM1 8217   7.229   8.944   8.304
 8218OM     OM1 8218   8.659   8.688   3.088
 8219OM     OM1 8219   8.909   8.596   3.088
 8220OM     OM1 8220   7.821   9.012   1.573
 8221OM     OM1 8221   2.231   8.520   8.118
 8222OM     OM1 8222   4.722   8.439   7.701
 8223OM     OM1 8223   0.242   8.717   2.652
 8224OM     OM1 8224   0.001   8.720   2.745
 8225OM     OM1 8225   0.046   8.855   2.530
 8226OM     OM1 8226   4.345   0.141   9.226
 8227OM     OM1 8227   4.424   9.596   9.025
 8228OM     OM1 8228   4.528   0.230   9.051
 8229OM     OM1 8229   4.531   8.713   1.760
 8230OM     OM1 8230   4.377   8.879   1.635
 8231OM     OM1 8231   4.296   8.761   1.861
 8232OM     OM1 8232   4.320   8.625   1.639
 8233OM     OM1 8233   8.820   1.005   8.224
 8234OM     OM1 8234   8.936   1.236   8.263
 8235OM     OM1 8235   1.377   8.748   7.991
 8236OM     OM1 8236   1.157   8.889   7.939
 8237OM     OM1 8237   3.881   1.436   1.329
 8238OM     OM1 8238   8.169   9.089   9.002
 8239OM     OM1 8239   8.343   9.190   9.180
 8240OM     OM1 8240   2.075   8.945   0.554
 8241OM     OM1 8241   1.821   8.985   0.759
 8242OM     OM1 8242   2.047   8.858   0.792
 8243OM     OM1 8243   0.123   9.158   7.971
 8244OM     OM1 8244   9.600   9.380   7.994
 8245OM     OM1 8245   9.469   9.157   7.963
 8246OM     OM1 8246   0.894   1.281   6.329
 8247OM     OM1 8247   8.639   1.164   3.255
 8248OM     OM1 8248   6.778   0.133   9.538
 8249OM     OM1 8249   6.094   0.774   6.537
 8250OM     OM1 8250   6.257   0.699   6.732
 8251OM     OM1 8251   6.101   0.522   6.634
 8252OM     OM1 8252   5.999   0.734   6.764
 8253OM     OM1 8253   9.041   0.812   3.270
 8254OM     OM1 8254   9.210   0.801   3.458
 8255OM     OM1 8255   8.959   0.719   3.494
 8256OM     OM1 8256   0.401   0.337   7.093
 8257OM     OM1 8257   0.624   0.430   7.194
 8258OM     OM1 8258   0.632   0.242   7.010
 8259OM     OM1 8259   4.694   1.214   7.732
 8260OM     OM1 8260   6.006   0.006   5.185
 8261OM     OM1 8261   5.827   9.480   5.051
 8262OM     OM1 8262   1.652   8.214   2.940
 8263OM     OM1 8263   5.541   0.115   4.338
 8264OM     OM1 8264   5.542   9.483   4.453
 8265OM     OM1 8265   0.711   8.251   3.120
 8266OM     OM1 8266   2.541   0.724   1.897
 8267OM     OM1 8267   2.723   0.882   1.788
 8268OM     OM1 8268   2.728   0.831   2.047
 8269OM     OM1 8269   0.432   0.479   3.433
 8270OM     OM1 8270   0.346   0.240   3.515
 8271OM     OM1 8271   0.187   0.429   3.443
 8272OM     OM1 8272   7.902   0.142   5.588
 8273OM     OM1 8273   8.937   8.836   7.989
 8274OM     OM1 8274   2.800   9.313   3.071
 8275OM     OM1 8275   8.177   1.169   6.259
 8276OM     OM1 8276   4.776   8.344   9.427
 8277OM     OM1 8277   9.489   0.730   3.925
 8278OM     OM1 8278   0.270   0.428   4.127
 8279OM     OM1 8279   9.500   0.502   3.798
 8280OM     OM1 8280   0.782   8.529   4.485
 8281OM     OM1 8281   6.398   9.532   2.636
 8282OM     OM1 8282   6.447   9.280   2.644
 8283OM     OM1 8283   6.344   9.232   2.878
 8284OM     OM1 8284   5.004   9.550   1.681
 8285OM     OM1 8285   5.178   9.356   1.665
 8286OM     OM1 8286   5.234   9.560   1.813
 8287OM     OM1 8287   5.047   9.392   1.890
 8288OM     OM1 8288   1.425   8.415   8.423
 8289OM     OM1 8289   1.547   8.288   8.616
 8290OM     OM1 8290   5.753   8.244   2.762
 8291OM     OM1 8291   5.776   8.420   2.948
 8292OM     OM1 8292   6.891   9.296   3.354
 8293OM     OM1 8293   7.039   9.501   3.304
 8294OM     OM1 8294   5.018   1.343   9.244
 8295OM     OM1 8295   1.597   1.044   6.365
 8296OM     OM1 8296   1.638   1.280   6.276
 8297OM     OM1 8297   7.920   0.044   1.337
 8298OM     OM1 8298   3.590   8.293   6.507
 8299OM     OM1 8299   8.393   1.091   2.810
 8300OM     OM1 8300   8.589   0.948   2.889
 8301OM     OM1 8301   8.480   1.106   3.060
 8302OM     OM1 8302   7.174   8.672   5.041
 8303OM     OM1 8303   7.064   8.729   5.260
 8304OM     OM1 8304   7.000   8.501   5.150
 8305OM     OM1 8305   1.781   0.626   9.368
 8306OM     OM1 8306   1.764   0.453   9.174
 8307OM     OM1 8307   3.862   0.961   3.975
 8308OM     OM1 8308   3.970   1.126   3.808
 8309OM     OM1 8309   4.843   9.471   5.622
 8310OM     OM1 8310   4.683   0.012   5.460
 8311OM     OM1 8311   4.875   9.467   5.362
 8312OM     OM1 8312   7.040   0.968   2.911
 8313OM     OM1 8313   6.805   0.963   2.800
 8314OM     OM1 8314   6.846   0.558   2.816
 8315OM     OM1 8315   6.750   1.120   2.997
 8316OM     OM1 8316   0.765   9.558   8.749
 8317OM     OM1 8317   0.819   0.203   8.767
 8318OM     OM1 8318   0.628   0.119   8.593
 8319OM     OM1 8319   0.870   0.074   8.544
 8320OM     OM1 8320   2.813   9.058   0.485
 8321OM     OM1 8321   2.863   0.968   4.348
 8322OM     OM1 8322   2.933   0.782   4.168
 8323OM     OM1 8323   4.923   0.053   9.480
 8324OM     OM1 8324   4.740   0.035   9.305
 8325OM     OM1 8325   7.969   9.351   3.906
 8326OM     OM1 8326   8.099   9.266   3.700
 8327OM     OM1 8327   2.887   8.468   5.297
 8328OM     OM1 8328   3.136   8.516   5.373
 8329OM     OM1 8329   2.985   8.697   5.241
 8330OM     OM1 8330   3.089   8.501   5.121
 8331OM     OM1 8331   2.632   1.247   7.639
 8332OM     OM1 8332   2.668   1.132   7.878
 8333OM     OM1 8333   8.535   8.912   1.459
 8334OM     OM1 8334   8.736   8.898   1.620
 8335OM     OM1 8335   8.580   8.689   1.582
 8336OM     OM1 8336   9.055   0.530   3.645
 8337OM     OM1 8337   9.193   0.433   3.841
 8338OM     OM1 8338   9.127   0.282   3.637
 8339OM     OM1 8339   9.317   0.458   3.621
 8340OM     OM1 8340   7.066   0.873   6.676
 8341OM     OM1 8341   7.149   0.890   6.918
 8342OM     OM1 8342   9.096   9.494   9.264
 8343OM     OM1 8343   5.447   0.228   9.344
 8344OM     OM1 8344   5.576   0.281   9.117
 8345OM     OM1 8345   5.554   0.038   9.208
 8346OM     OM1 8346   5.835   0.438   5.470
 8347OM     OM1 8347   5.804   0.533   5.701
 8348OM     OM1 8348   1.790   8.892   8.827
 8349OM     OM1 8349   1.705   8.654   8.769
 8350OM     OM1 8350   1.811   8.816   8.580
 8351OM     OM1 8351   6.835   9.218   1.507
 8352OM     OM1 8352   7.085   9.206   1.471
 8353OM     OM1 8353   6.963   9.426   1.418
 8354OM     OM1 8354   5.863   1.270   2.811
 8355OM     OM1 8355   5.285   0.856   2.374
 8356OM     OM1 8356   5.289   0.876   2.117
 8357OM     OM1 8357   4.894   9.023   0.531
 8358OM     OM1 8358   5.092   9.014   0.373
 8359OM     OM1 8359   2.554   1.085   6.607
 8360OM     OM1 8360   2.509   0.970   6.378
 8361OM     OM1 8361   2.408   1.197   6.427
 8362OM     OM1 8362   6.601   8.491   2.571
 8363OM     OM1 8363   7.961   1.283   3.907
 8364OM     OM1 8364   7.834   1.057   3.977
 8365OM     OM1 8365   8.008   1.170   4.143
 8366OM     OM1 8366   8.500   0.433   8.662
 8367OM     OM1 8367   8.599   0.237   8.798
 8368OM     OM1 8368   7.543   1.344   7.976
 8369OM     OM1 8369   7.305   1.283   8.048
 8370OM     OM1 8370   7.497   1.120   8.112
 8371OM     OM1 8371   6.250   8.374   5.948
 8372OM     OM1 8372   7.063   8.396   9.238
 8373OM     OM1 8373   3.828   1.270   1.133
 8374OM     OM1 8374   6.491   0.954   7.122
 8375OM     OM1 8375   6.326   1.116   7.238
 8376OM     OM1 8376   9.460   1.003   0.078
 8377OM     OM1 8377   9.125   0.947   0.384
 8378OM     OM1 8378   8.411   9.200   2.973
 8379OM     OM1 8379   3.317   0.206   2.695
 8380OM     OM1 8380   3.279   9.585   2.580
 8381OM     OM1 8381   5.915   8.474   5.411
 8382OM     OM1 8382   1.266   9.398   7.746
 8383OM     OM1 8383   1.270   9.533   7.529
 8384OM     OM1 8384   6.352   8.692   1.324
 8385OM     OM1 8385   7.236   0.994   1.259
 8386OM     OM1 8386   5.745   0.268   8.080
 8387OM     OM1 8387   5.619   0.054   8.044
 8388OM     OM1 8388   5.530   0.273   7.926
 8389OM     OM1 8389   9.543   8.462   9.584
 8390OM     OM1 8390   7.925   8.782   9.241
 8391OM     OM1 8391   8.114   8.614   9.154
 8392OM     OM1 8392   6.173   8.921   7.557
 8393OM     OM1 8393   6.044   8.842   7.771
 8394OM     OM1 8394   8.293   9.528   2.557
 8395OM     OM1 8395   8.453   0.116   2.478
 8396OM     OM1 8396   8.462   9.489   2.349
 8397OM     OM1 8397   6.734   0.800   2.467
 8398OM     OM1 8398   6.764   1.068   2.427
 8399OM     OM1 8399   7.312   8.938   6.452
 8400OM     OM1 8400   7.189   9.010   6.668
 8401OM     OM1 8401   6.684   8.758   3.550
 8402OM     OM1 8402   6.496   8.600   3.477
 8403OM     OM1 8403   0.875   0.087   0.460
 8404OM     OM1 8404   8.340   1.228   9.289
 8405OM     OM1 8405   8.256   1.423   9.437
 8406OM     OM1 8406   4.458   1.132   8.070
 8407OM     OM1 8407   4.284   1.224   7.913
 8408OM     OM1 8408   7.543   9.523   6.648
 8409OM     OM1 8409   7.735   9.595   6.818
 8410OM     OM1 8410   7.771   9.449   6.585
 8411OM     OM1 8411   4.499   0.343   3.486
 8412OM     OM1 8412   0.022   1.334   7.897
 8413OM     OM1 8413   9.431   1.273   8.375
 8414OM     OM1 8414   9.425   1.051   8.245
 8415OM     OM1 8415   1.988   8.577   5.523
 8416OM     OM1 8416   2.214   8.663   5.612
 8417OM     OM1 8417   2.139   8.701   5.357
 8418OM     OM1 8418   1.300   8.583   7.037
 8419OM     OM1 8419   1.139   8.747   6.904
 8420OM     OM1 8420   1.054   8.611   7.116
 8421OM     OM1 8421   4.285   0.455   9.370
 8422OM     OM1 8422   3.888   0.465   0.104
 8423OM     OM1 8423   8.734   0.243   9.015
 8424OM     OM1 8424   8.760   0.042   8.844
 8425OM     OM1 8425   8.535   0.069   8.970
 8426OM     OM1 8426   1.396   1.248   3.943
 8427OM     OM1 8427   1.374   1.099   4.155
 8428OM     OM1 8428   1.296   0.997   3.929
 8429OM     OM1 8429   5.302   8.448   9.051
 8430OM     OM1 8430   5.202   8.584   9.378
 8431OM     OM1 8431   5.411   8.451   9.281
 8432OM     OM1 8432   1.886   0.774   7.201
 8433OM     OM1 8433   1.938   0.630   7.421
 8434OM     OM1 8434   2.817   0.350   3.210
 8435OM     OM1 8435   2.884   0.248   2.973
 8436OM     OM1 8436   3.006   0.480   3.118
 8437OM     OM1 8437   7.291   0.834   8.045
 8438OM     OM1 8438   7.168   1.290   8.266
 8439OM     OM1 8439   7.220   1.066   8.145
 8440OM     OM1 8440   1.242   0.752   9.002
 8441OM     OM1 8441   1.439   0.750   8.839
 8442OM     OM1 8442   6.170   9.312   8.171
 8443OM     OM1 8443   1.210   0.217   3.965
 8444OM     OM1 8444   1.938   1.296   8.973
 8445OM     OM1 8445   5.789   0.364   7.656
 8446OM     OM1 8446   5.946   0.229   7.499
 8447OM     OM1 8447   6.041   0.331   7.722
 8448OM     OM1 8448   8.546   0.687   9.044
 8449OM     OM1 8449   8.359   0.743   9.244
 8450OM     OM1 8450   8.366   0.777   9.515
 8451OM     OM1 8451   5.719   9.019   2.227
 8452OM     OM1 8452   5.964   9.059   2.305
 8453OM     OM1 8453   5.785   9.216   2.394
 8454OM     OM1 8454   5.773   8.833   2.395
 8455OM     OM1 8455   3.445   9.062   6.928
 8456OM     OM1 8456   5.189   8.830   6.782
 8457OM     OM1 8457   0.687   0.411   0.665
 8458OM     OM1 8458   0.562   0.632   0.656
 8459OM     OM1 8459   3.269   1.259   0.345
 8460OM     OM1 8460   2.578   0.793   9.520
 8461OM     OM1 8461   2.577   0.690   9.268
 8462OM     OM1 8462   3.928   9.350   0.962
 8463OM     OM1 8463   3.871   9.428   1.199
 8464OM     OM1 8464   4.104   9.488   1.069
 8465OM     OM1 8465   9.315   9.286   4.540
 8466OM     OM1 8466   9.351   9.276   4.281
 8467OM     OM1 8467   7.697   0.649   8.107
 8468OM     OM1 8468   1.917   0.679   7.676
 8469OM     OM1 8469   1.788   0.872   7.568
 8470OM     OM1 8470   1.782   0.875   7.820
 8471OM     OM1 8471   2.013   0.918   7.703
 8472OM     OM1 8472   4.719   8.778   4.584
 8473OM     OM1 8473   2.483   8.446   9.091
 8474OM     OM1 8474   2.608   8.526   8.896
 8475OM     OM1 8475   3.636   8.471   3.300
 8476OM     OM1 8476   6.715   0.209   1.663
 8477OM     OM1 8477   6.704   0.464   1.669
 8478OM     OM1 8478   0.957   9.227   2.126
 8479OM     OM1 8479   1.012   9.040   1.946
 8480OM     OM1 8480   0.766   9.088   2.004
 8481OM     OM1 8481   7.515   0.931   0.139
 8482OM     OM1 8482   7.468   1.081   0.350
 8483OM     OM1 8483   5.448   1.087   9.581
 8484OM     OM1 8484   1.252   9.162   6.254
 8485OM     OM1 8485   1.472   9.188   6.391
 8486OM     OM1 8486   6.499   0.356   7.888
 8487OM     OM1 8487   6.251   0.286   7.867
 8488OM     OM1 8488   6.436   0.161   7.731
 8489OM     OM1 8489   3.886   1.055   8.498
 8490OM     OM1 8490   4.143   0.984   8.523
 8491OM     OM1 8491   4.021   0.920   8.311
 8492OM     OM1 8492   3.726   8.511   7.545
 8493OM     OM1 8493   7.004   8.351   0.660
 8494OM     OM1 8494   7.268   8.304   0.624
 8495OM     OM1 8495   0.366   0.088   3.734
 8496OM     OM1 8496   0.613   0.103   3.682
 8497OM     OM1 8497   7.345   1.237   7.671
 8498OM     OM1 8498   7.244   1.173   7.186
 8499OM     OM1 8499   7.142   1.083   7.660
 8500OM     OM1 8500   7.292   1.107   7.451
 8501OM     OM1 8501   2.518   1.269   5.174
 8502OM     OM1 8502   4.211   9.358   7.288
 8503OM     OM1 8503   4.369   9.338   7.492
 8504OM     OM1 8504   4.462   9.361   7.252
 8505OM     OM1 8505   3.317   8.863   0.880
 8506OM     OM1 8506   3.163   8.868   1.086
 8507OM     OM1 8507   0.644   0.691   7.229
 8508OM     OM1 8508   8.655   0.633   6.005
 8509OM     OM1 8509   8.706   0.890   5.965
 8510OM     OM1 8510   8.897   0.715   5.976
 8511OM     OM1 8511   8.961   1.220   7.016
 8512OM     OM1 8512   9.183   1.144   7.124
 8513OM     OM1 8513   2.737   9.334   8.424
 8514OM     OM1 8514   1.236   0.325   8.374
 8515OM     OM1 8515   1.303   0.288   8.622
 8516OM     OM1 8516   1.118   0.137   8.511
 8517OM     OM1 8517   9.469   9.369   1.622
 8518OM     OM1 8518   1.897   1.161   2.495
 8519OM     OM1 8519   5.528   0.345   7.669
 8520OM     OM1 8520   8.267   8.125   5.318
 8521OM     OM1 8521   0.462   8.877   2.980
 8522OM     OM1 8522   0.256   8.979   3.116
 8523OM     OM1 8523   6.183   8.657   1.513
 8524OM     OM1 8524   6.082   8.740   1.743
 8525OM     OM1 8525   6.018   0.434   0.618
 8526OM     OM1 8526   6.259   0.479   0.510
 8527OM     OM1 8527   6.125   0.679   0.606
 8528OM     OM1 8528   6.847   0.044   1.501
 8529OM     OM1 8529   6.942   0.037   1.262
 8530OM     OM1 8530   8.984   8.709   5.716
 8531OM     OM1 8531   9.230   8.736   5.645
 8532OM     OM1 8532   2.984   9.404   2.284
 8533OM     OM1 8533   2.810   9.596   2.231
 8534OM     OM1 8534   3.017   9.572   2.076
 8535OM     OM1 8535   3.732   8.748   8.749
 8536OM     OM1 8536   3.555   8.740   8.554
 8537OM     OM1 8537   3.616   8.966   8.660
 8538OM     OM1 8538   3.025   9.092   1.038
 8539OM     OM1 8539   2.906   8.863   1.018
 8540OM     OM1 8540   0.634   8.968   7.352
 8541OM     OM1 8541   0.503   9.082   7.150
 8542OM     OM1 8542   0.681   8.905   7.101
 8543OM     OM1 8543   6.162   8.843   6.822
 8544OM     OM1 8544   6.247   8.940   7.049
 8545OM     OM1 8545   6.104   8.721   7.040
 8546OM     OM1 8546   5.270   0.203   9.545
 8547OM     OM1 8547   8.488   8.841   9.424
 8548OM     OM1 8548   8.359   9.061   9.407
 8549OM     OM1 8549   8.500   9.012   0.021
 8550OM     OM1 8550   0.954   1.282   4.561
 8551OM     OM1 8551   2.651   9.217   2.416
 8552OM     OM1 8552   2.436   9.076   2.354
 8553OM     OM1 8553   2.592   9.151   2.157
 8554OM     OM1 8554   2.363   1.056   3.616
 8555OM     OM1 8555   2.194   0.974   3.440
 8556OM     OM1 8556   3.741   9.054   7.947
 8557OM     OM1 8557   3.873   9.093   8.164
 8558OM     OM1 8558   5.363   0.817   2.621
 8559OM     OM1 8559   5.574   0.870   2.772
 8560OM     OM1 8560   9.288   0.088   3.711
 8561OM     OM1 8561   9.051   0.109   3.810
 8562OM     OM1 8562   0.180   1.162   1.586
 8563OM     OM1 8563   9.205   0.908   8.199
 8564OM     OM1 8564   6.544   1.164   2.375
 8565OM     OM1 8565   6.460   1.018   2.583
 8566OM     OM1 8566   3.308   0.490   4.736
 8567OM     OM1 8567   5.593   9.475   5.172
 8568OM     OM1 8568   7.145   8.550   3.413
 8569OM     OM1 8569   7.170   8.360   3.244
 8570OM     OM1 8570   3.162   1.034   6.376
 8571OM     OM1 8571   3.042   1.069   6.153
 8572OM     OM1 8572   3.298   0.989   6.172
 8573OM     OM1 8573   6.838   1.195   8.887
 8574OM     OM1 8574   6.651   1.051   9.000
 8575OM     OM1 8575   0.597   0.073   8.330
 8576OM     OM1 8576   4.956   0.160   7.469
 8577OM     OM1 8577   4.838   9.556   7.344
 8578OM     OM1 8578   4.844   9.575   7.602
 8579OM     OM1 8579   4.698   0.142   7.475
 8580OM     OM1 8580   4.014   9.049   5.501
 8581OM     OM1 8581   3.995   9.154   5.731
 8582OM     OM1 8582   8.200   0.951   5.797
 8583OM     OM1 8583   6.608   0.786   9.008
 8584OM     OM1 8584   6.493   0.621   8.847
 8585OM     OM1 8585   6.761   0.614   8.893
 8586OM     OM1 8586   4.340   9.087   0.921
 8587OM     OM1 8587   4.123   9.199   0.849
 8588OM     OM1 8588   6.071   1.143   5.233
 8589OM     OM1 8589   6.031   0.966   5.052
 8590OM     OM1 8590   4.680   8.794   3.845
 8591OM     OM1 8591   4.500   8.796   3.660
 8592OM     OM1 8592   4.733   8.693   3.608
 8593OM     OM1 8593   9.350   0.707   1.408
 8594OM     OM1 8594   0.016   0.456   1.719
 8595OM     OM1 8595   9.498   0.673   1.725
 8596OM     OM1 8596   8.406   8.653   2.444
 8597OM     OM1 8597   8.641   8.774   2.450
 8598OM     OM1 8598   8.607   8.579   2.290
 8599OM     OM1 8599   0.648   0.929   6.552
 8600OM     OM1 8600   0.540   0.859   6.782
 8601OM     OM1 8601   0.564   1.113   6.719
 8602OM     OM1 8602   0.156   9.518   8.152
 8603OM     OM1 8603   9.542   0.023   8.084
 8604OM     OM1 8604   2.468   9.222   4.665
 8605OM     OM1 8605   8.816   0.393   2.521
 8606OM     OM1 8606   8.948   0.617   2.492
 8607OM     OM1 8607   8.781   0.559   2.306
 8608OM     OM1 8608   8.700   0.612   2.553
 8609OM     OM1 8609   1.844   8.780   0.932
 8610OM     OM1 8610   8.603   0.210   0.168
 8611OM     OM1 8611   8.381   0.116   0.044
 8612OM     OM1 8612   8.209   0.354   0.043
 8613OM     OM1 8613   7.893   0.030   9.454
 8614OM     OM1 8614   8.147   0.069   9.500
 8615OM     OM1 8615   1.460   9.572   4.886
 8616OM     OM1 8616   1.544   0.082   5.103
 8617OM     OM1 8617   1.780   1.358   5.048
 8618OM     OM1 8618   1.943   1.274   5.228
 8619OM     OM1 8619   1.965   1.109   3.482
 8620OM     OM1 8620   2.016   0.984   3.255
 8621OM     OM1 8621   9.273   8.327   3.262
 8622OM     OM1 8622   5.547   8.905   4.222
 8623OM     OM1 8623   5.861   9.068   4.273
 8624OM     OM1 8624   5.762   9.224   4.464
 8625OM     OM1 8625   0.539   9.499   4.959
 8626OM     OM1 8626   6.491   9.445   1.637
 8627OM     OM1 8627   6.578   9.433   1.886
 8628OM     OM1 8628   6.714   9.558   1.698
 8629OM     OM1 8629   6.701   9.298   1.708
 8630OM     OM1 8630   7.196   1.071   9.276
 8631OM     OM1 8631   0.162   8.982   6.245
 8632OM     OM1 8632   0.313   9.185   6.199
 8633OM     OM1 8633   0.286   8.992   6.024
 8634OM     OM1 8634   3.594   1.348   1.888
 8635OM     OM1 8635   3.443   1.402   2.085
 8636OM     OM1 8636   3.561   1.170   2.087
 8637OM     OM1 8637   8.559   8.723   7.295
 8638OM     OM1 8638   8.514   8.956   7.200
 8639OM     OM1 8639   8.314   8.795   7.256
 8640OM     OM1 8640   2.283   9.443   8.156
 8641OM     OM1 8641   5.640   9.118   5.628
 8642OM     OM1 8642   5.719   9.343   5.530
 8643OM     OM1 8643   4.282   9.349   1.641
 8644OM     OM1 8644   4.322   9.551   1.475
 8645OM     OM1 8645   2.310   1.003   1.305
 8646OM     OM1 8646   2.492   0.860   1.201
 8647OM     OM1 8647   0.705   8.381   1.365
 8648OM     OM1 8648   0.734   8.332   1.123
 8649OM     OM1 8649   0.050   0.334   5.897
 8650OM     OM1 8650   0.035   0.074   5.888
 8651OM     OM1 8651   7.257   0.372   2.592
 8652OM     OM1 8652   5.891   0.226   8.290
 8653OM     OM1 8653   1.597   0.659   8.092
 8654OM     OM1 8654   1.668   0.485   8.264
 8655OM     OM1 8655   4.359   0.627   3.857
 8656OM     OM1 8656   4.424   0.835   3.708
 8657OM     OM1 8657   7.800   8.389   2.599
 8658OM     OM1 8658   7.856   8.316   2.852
 8659OM     OM1 8659   4.375   8.711   2.103
 8660OM     OM1 8660   1.027   9.083   3.135
 8661OM     OM1 8661   1.044   9.337   3.221
 8662OM     OM1 8662   1.773   8.668   5.395
 8663OM     OM1 8663   1.542   8.783   5.384
 8664OM     OM1 8664   1.605   8.643   5.181
 8665OM     OM1 8665   1.551   8.521   5.398
 8666OM     OM1 8666   5.543   9.024   3.281
 8667OM     OM1 8667   5.295   9.128   3.188
 8668OM     OM1 8668   5.349   8.666   3.194
 8669OM     OM1 8669   2.921   9.431   0.217
 8670OM     OM1 8670   9.424   9.001   4.643
 8671OM     OM1 8671   9.481   8.768   4.734
 8672OM     OM1 8672   5.019   8.469   2.926
 8673OM     OM1 8673   1.634   8.747   2.277
 8674OM     OM1 8674   1.830   8.846   2.409
 8675OM     OM1 8675   3.241   0.741   3.688
 8676OM     OM1 8676   3.050   0.571   3.663
 8677OM     OM1 8677   2.965   0.801   3.714
 8678OM     OM1 8678   0.250   0.336   1.697
 8679OM     OM1 8679   5.298   0.584   6.833
 8680OM     OM1 8680   5.087   0.475   6.966
 8681OM     OM1 8681   1.292   9.404   2.806
 8682OM     OM1 8682   1.263   9.556   2.605
 8683OM     OM1 8683   1.236   9.305   2.578
 8684OM     OM1 8684   1.046   9.418   2.705
 8685OM     OM1 8685   0.151   0.125   2.150
 8686OM     OM1 8686   1.618   8.744   7.900
 8687OM     OM1 8687   1.787   8.931   7.974
 8688OM     OM1 8688   3.211   0.126   6.670
 8689OM     OM1 8689   3.255   0.036   6.427
 8690OM     OM1 8690   5.654   9.403   8.032
 8691OM     OM1 8691   9.059   0.480   2.675
 8692OM     OM1 8692   9.016   0.418   2.913
 8693OM     OM1 8693   8.920   0.268   2.716
 8694OM     OM1 8694   9.167   0.253   2.777
 8695OM     OM1 8695   5.043   0.385   0.639
 8696OM     OM1 8696   8.132   8.813   7.887
 8697OM     OM1 8697   0.622   8.775   5.648
 8698OM     OM1 8698   8.612   0.406   1.316
 8699OM     OM1 8699   8.772   0.214   1.363
 8700OM     OM1 8700   7.302   1.202   9.078
 8701OM     OM1 8701   7.107   1.218   8.911
 8702OM     OM1 8702   7.530   0.530   7.427
 8703OM     OM1 8703   7.342   0.483   7.610
 8704OM     OM1 8704   5.966   0.312   1.109
 8705OM     OM1 8705   5.931   0.226   1.351
 8706OM     OM1 8706   4.714   9.330   7.269
 8707OM     OM1 8707   7.935   8.484   6.455
 8708OM     OM1 8708   7.919   8.602   6.679
 8709OM     OM1 8709   7.866   8.343   6.673
 8710OM     OM1 8710   9.516   8.970   0.867
 8711OM     OM1 8711   0.052   8.822   0.709
 8712OM     OM1 8712   6.388   0.239   3.998
 8713OM     OM1 8713   0.636   1.160   4.642
 8714OM     OM1 8714   0.501   1.046   4.836
 8715OM     OM1 8715   2.241   1.073   4.123
 8716OM     OM1 8716   5.129   9.212   8.500
 8717OM     OM1 8717   4.871   9.247   8.467
 8718OM     OM1 8718   4.972   9.148   8.696
 8719OM     OM1 8719   3.745   0.124   4.242
 8720OM     OM1 8720   3.741   0.123   4.500
 8721OM     OM1 8721   1.341   0.555   6.388
 8722OM     OM1 8722   1.308   0.409   6.187
 8723OM     OM1 8723   8.920   0.965   7.484
 8724OM     OM1 8724   8.807   0.912   7.706
 8725OM     OM1 8725   8.909   1.150   7.676
 8726OM     OM1 8726   4.642   9.504   9.102
 8727OM     OM1 8727   4.473   9.348   8.962
 8728OM     OM1 8728   9.285   0.437   4.281
 8729OM     OM1 8729   9.502   0.348   4.175
 8730OM     OM1 8730   9.330   0.519   4.051
 8731OM     OM1 8731   0.435   8.446   8.696
 8732OM     OM1 8732   0.355   8.528   8.463
 8733OM     OM1 8733   5.165   9.327   2.116
 8734OM     OM1 8734   7.804   0.666   8.930
 8735OM     OM1 8735   7.773   0.967   9.184
 8736OM     OM1 8736   4.732   0.337   7.645
 8737OM     OM1 8737   6.208   9.267   9.197
 8738OM     OM1 8738   6.477   0.543   3.442
 8739OM     OM1 8739   6.678   0.594   3.286
 8740OM     OM1 8740   6.550   0.787   3.417
 8741OM     OM1 8741   8.282   0.602   5.156
 8742OM     OM1 8742   2.399   9.469   3.693
 8743OM     OM1 8743   2.590   9.303   3.763
 8744OM     OM1 8744   1.898   0.365   5.586
 8745OM     OM1 8745   1.978   0.541   5.410
 8746OM     OM1 8746   1.049   8.964   6.776
 8747OM     OM1 8747   0.803   0.527   1.150
 8748OM     OM1 8748   0.572   0.448   1.073
 8749OM     OM1 8749   0.642   0.712   1.073
 8750OM     OM1 8750   1.945   9.421   2.724
 8751OM     OM1 8751   0.688   0.215   1.114
 8752OM     OM1 8752   0.139   9.489   9.145
 8753OM     OM1 8753   9.508   9.365   9.179
 8754OM     OM1 8754   3.506   9.280   4.407
 8755OM     OM1 8755   3.615   9.068   4.510
 8756OM     OM1 8756   3.644   9.300   4.632
 8757OM     OM1 8757   0.266   0.040   8.988
 8758OM     OM1 8758   2.715   9.485   0.364
 8759OM     OM1 8759   2.741   9.517   0.631
 8760OM     OM1 8760   3.452   8.202   5.550
 8761OM     OM1 8761   3.324   8.324   5.366
 8762OM     OM1 8762   2.454   0.621   4.128
 8763OM     OM1 8763   5.891   8.708   7.184
 8764OM     OM1 8764   0.930   0.670   6.248
 8765OM     OM1 8765   1.188   0.719   6.165
 8766OM     OM1 8766   1.293   0.566   2.541
 8767OM     OM1 8767   1.295   0.590   2.281
 8768OM     OM1 8768   0.364   9.039   8.629
 8769OM     OM1 8769   0.591   9.162   8.688
 8770OM     OM1 8770   5.018   9.561   5.789
 8771OM     OM1 8771   5.031   0.223   5.754
 8772OM     OM1 8772   0.746   0.505   6.127
 8773OM     OM1 8773   4.661   0.928   7.280
 8774OM     OM1 8774   4.439   0.870   7.148
 8775OM     OM1 8775   8.532   0.095   6.365
 8776OM     OM1 8776   8.445   0.034   6.119
 8777OM     OM1 8777   2.418   1.086   5.007
 8778OM     OM1 8778   7.929   0.802   3.382
 8779OM     OM1 8779   7.955   0.571   3.493
 8780OM     OM1 8780   8.875   0.756   3.993
 8781OM     OM1 8781   9.069   0.576   4.017
 8782OM     OM1 8782   8.838   0.502   3.915
 8783OM     OM1 8783   1.714   9.293   9.421
 8784OM     OM1 8784   1.909   9.447   9.347
 8785OM     OM1 8785   4.110   1.136   3.101
 8786OM     OM1 8786   3.756   9.340   9.263
 8787OM     OM1 8787   3.901   9.533   9.177
 8788OM     OM1 8788   1.686   9.053   2.485
 8789OM     OM1 8789   1.931   9.020   2.573
 8790OM     OM1 8790   4.348   0.718   1.456
 8791OM     OM1 8791   4.266   0.486   1.515
 8792OM     OM1 8792   4.477   0.523   1.361
 8793OM     OM1 8793   3.009   8.466   1.174
 8794OM     OM1 8794   3.261   8.412   1.188
 8795OM     OM1 8795   0.340   9.272   2.822
 8796OM     OM1 8796   6.829   9.266   6.679
 8797OM     OM1 8797   6.864   9.399   6.463
 8798OM     OM1 8798   5.159   0.960   1.043
 8799OM     OM1 8799   5.286   1.185   0.969
 8800OM     OM1 8800   6.585   9.113   8.680
 8801OM     OM1 8801   6.428   9.084   8.478
 8802OM     OM1 8802   6.599   8.899   8.531
 8803OM     OM1 8803   7.582   9.100   5.130
 8804OM     OM1 8804   7.348   9.138   5.217
 8805OM     OM1 8805   3.997   9.567   2.010
 8806OM     OM1 8806   4.205   0.084   2.093
 8807OM     OM1 8807   3.972   0.222   2.065
 8808OM     OM1 8808   4.229   8.693   0.410
 8809OM     OM1 8809   7.242   8.919   5.305
 8810OM     OM1 8810   7.462   8.992   5.411
 8811OM     OM1 8811   7.247   9.130   5.464
 8812OM     OM1 8812   4.665   0.466   9.071
 8813OM     OM1 8813   6.302   8.403   5.681
 8814OM     OM1 8814   6.489   0.571   9.534
 8815OM     OM1 8815   2.335   8.406   6.345
 8816OM     OM1 8816   2.426   8.695   6.274
 8817OM     OM1 8817   5.388   9.142   6.404
 8818OM     OM1 8818   3.787   0.369   6.035
 8819OM     OM1 8819   3.780   0.189   6.229
 8820OM     OM1 8820   1.418   9.531   0.357
 8821OM     OM1 8821   1.345   8.386   2.286
 8822OM     OM1 8822   9.453   1.330   9.218
 8823OM     OM1 8823   3.153   8.744   8.235
 8824OM     OM1 8824   3.009   8.690   8.031
 8825OM     OM1 8825   3.714   0.750   3.905
 8826OM     OM1 8826   5.662   8.846   3.439
 8827OM     OM1 8827   2.672   8.574   9.285
 8828OM     OM1 8828   2.855   8.388   9.348
 8829OM     OM1 8829   2.739   8.416   9.103
 8830OM     OM1 8830   5.431   0.270   8.904
 8831OM     OM1 8831   7.368   9.491   2.612
 8832OM     OM1 8832   7.287   0.124   2.555
 8833OM     OM1 8833   7.474   0.107   2.733
 8834OM     OM1 8834   7.239   0.014   2.795
 8835OM     OM1 8835   2.957   8.848   0.559
 8836OM     OM1 8836   2.295   9.273   6.720
 8837OM     OM1 8837   8.228   9.516   0.286
 8838OM     OM1 8838   8.582   0.080   9.257
 8839OM     OM1 8839   8.382   9.584   9.137
 8840OM     OM1 8840   8.366   0.081   9.385
 8841OM     OM1 8841   4.315   1.270   6.831
 8842OM     OM1 8842   4.369   1.039   6.956
 8843OM     OM1 8843   5.718   8.573   6.612
 8844OM     OM1 8844   5.495   8.582   6.456
 8845OM     OM1 8845   4.115   9.286   6.487
 8846OM     OM1 8846   3.992   9.496   6.553
 8847OM     OM1 8847   4.418   0.657   9.278
 8848OM     OM1 8848   4.409   0.729   0.096
 8849OM     OM1 8849   9.043   0.357   2.242
 8850OM     OM1 8850   9.120   0.162   5.706
 8851OM     OM1 8851   0.831   8.316   4.171
 8852OM     OM1 8852   3.729   8.892   9.066
 8853OM     OM1 8853   3.754   9.147   9.078
 8854OM     OM1 8854   3.605   9.053   8.899
 8855OM     OM1 8855   3.885   9.302   2.643
 8856OM     OM1 8856   3.635   9.203   2.899
 8857OM     OM1 8857   3.732   9.321   3.110
 8858OM     OM1 8858   7.124   0.241   4.400
 8859OM     OM1 8859   7.332   0.115   4.316
 8860OM     OM1 8860   7.212   0.043   4.539
 8861OM     OM1 8861   7.854   0.755   5.359
 8862OM     OM1 8862   7.852   0.587   5.159
 8863OM     OM1 8863   8.063   0.579   5.312
 8864OM     OM1 8864   0.818   8.508   1.809
 8865OM     OM1 8865   0.783   8.367   2.044
 8866OM     OM1 8866   6.337   8.449   1.434
 8867OM     OM1 8867   6.123   8.381   1.316
 8868OM     OM1 8868   5.868   0.849   2.132
 8869OM     OM1 8869   3.172   1.259   9.488
 8870OM     OM1 8870   0.787   0.587   6.732
 8871OM     OM1 8871   0.639   0.370   6.779
 8872OM     OM1 8872   8.541   9.505   5.923
 8873OM     OM1 8873   9.202   8.508   7.931
 8874OM     OM1 8874   9.097   8.385   8.131
 8875OM     OM1 8875   8.961   8.423   7.908
 8876OM     OM1 8876   6.343   1.225   4.666
 8877OM     OM1 8877   4.345   1.131   2.673
 8878OM     OM1 8878   3.823   8.349   8.529
 8879OM     OM1 8879   3.848   8.273   8.287
 8880OM     OM1 8880   6.938   9.208   1.753
 8881OM     OM1 8881   8.591   8.796   0.704
 8882OM     OM1 8882   8.567   9.052   0.715
 8883OM     OM1 8883   4.926   0.844   8.431
 8884OM     OM1 8884   4.912   9.366   4.225
 8885OM     OM1 8885   5.155   9.473   4.238
 8886OM     OM1 8886   3.734   0.288   5.285
 8887OM     OM1 8887   3.571   0.457   5.170
 8888OM     OM1 8888   3.284   0.548   8.777
 8889OM     OM1 8889   3.362   0.340   8.902
 8890OM     OM1 8890   3.104   0.401   8.868
 8891OM     OM1 8891   2.157   8.821   6.881
 8892OM     OM1 8892   2.173   9.053   6.783
 8893OM     OM1 8893   5.807   9.412   3.793
 8894OM     OM1 8894   5.582   0.346   3.867
 8895OM     OM1 8895   4.785   0.713   4.958
 8896OM     OM1 8896   7.919   8.952   7.569
 8897OM     OM1 8897   8.054   8.736   7.653
 8898OM     OM1 8898   7.979   8.760   7.415
 8899OM     OM1 8899   9.597   8.875   6.069
 8900OM     OM1 8900   4.918   0.653   4.361
 8901OM     OM1 8901   4.930   0.762   4.132
 8902OM     OM1 8902   0.033   8.905   3.251
 8903OM     OM1 8903   9.387   8.959   3.216
 8904OM     OM1 8904   7.876   0.216   2.479
 8905OM     OM1 8905   8.065   0.039   2.527
 8906OM     OM1 8906   8.111   0.265   2.405
 8907OM     OM1 8907   0.268   8.622   9.172
 8908OM     OM1 8908   4.049   1.245   1.346
 8909OM     OM1 8909   3.883   8.829   2.694
 8910OM     OM1 8910   3.753   8.972   2.868
 8911OM     OM1 8911   8.950   8.849   1.474
 8912OM     OM1 8912   8.978   8.911   1.720
 8913OM     OM1 8913   3.132   1.074   4.184
 8914OM     OM1 8914   3.588   8.982   4.274
 8915OM     OM1 8915   3.780   8.888   4.427
 8916OM     OM1 8916   2.037   8.299   1.301
 8917OM     OM1 8917   1.905   0.218   4.229
 8918OM     OM1 8918   2.200   0.042   1.908
 8919OM     OM1 8919   2.107   9.464   2.063
 8920OM     OM1 8920   2.178   9.398   1.819
 8921OM     OM1 8921   7.638   9.349   9.434
 8922OM     OM1 8922   7.679   9.227   9.206
 8923OM     OM1 8923   3.393   1.348   6.662
 8924OM     OM1 8924   7.863   9.045   8.231
 8925OM     OM1 8925   7.620   9.079   8.150
 8926OM     OM1 8926   7.828   9.105   7.976
 8927OM     OM1 8927   4.316   1.336   7.682
 8928OM     OM1 8928   9.179   8.238   1.220
 8929OM     OM1 8929   8.480   9.307   8.586
 8930OM     OM1 8930   8.448   8.884   2.775
 8931OM     OM1 8931   8.637   8.897   2.939
 8932OM     OM1 8932   8.685   8.902   2.672
 8933OM     OM1 8933   8.574   9.106   2.797
 8934OM     OM1 8934   3.401   9.356   0.842
 8935OM     OM1 8935   3.422   9.097   0.843
 8936OM     OM1 8936   5.517   0.400   4.467
 8937OM     OM1 8937   0.720   1.008   5.847
 8938OM     OM1 8938   0.659   1.263   5.884
 8939OM     OM1 8939   8.565   9.289   4.548
 8940OM     OM1 8940   0.537   0.405   6.004
 8941OM     OM1 8941   3.644   8.747   4.717
 8942OM     OM1 8942   2.168   8.283   3.011
 8943OM     OM1 8943   2.902   9.206   2.853
 8944OM     OM1 8944   2.736   9.162   2.660
 8945OM     OM1 8945   2.708   9.054   2.905
 8946OM     OM1 8946   2.893   8.970   2.737
 8947OM     OM1 8947   8.608   0.739   4.540
 8948OM     OM1 8948   8.790   0.913   4.514
 8949OM     OM1 8949   2.472   0.267   2.019
 8950OM     OM1 8950   2.347   0.264   2.248
 8951OM     OM1 8951   2.567   0.113   2.211
 8952OM     OM1 8952   2.591   0.364   2.227
 8953OM     OM1 8953   4.244   9.293   6.176
 8954OM     OM1 8954   1.789   1.134   3.686
 8955OM     OM1 8955   1.590   1.023   3.799
 8956OM     OM1 8956   1.645   1.269   3.865
 8957OM     OM1 8957   9.229   0.660   6.309
 8958OM     OM1 8958   9.385   0.718   6.120
 8959OM     OM1 8959   9.132   0.771   6.081
 8960OM     OM1 8960   9.116   9.484   6.601
 8961OM     OM1 8961   0.924   1.354   0.892
 8962OM     OM1 8962   8.773   8.318   5.191
 8963OM     OM1 8963   6.636   0.029   9.345
 8964OM     OM1 8964   1.363   9.252   9.066
 8965OM     OM1 8965   1.553   9.198   9.242
 8966OM     OM1 8966   1.552   9.426   9.109
 8967OM     OM1 8967   9.273   9.393   6.792
 8968OM     OM1 8968   2.411   8.692   5.789
 8969OM     OM1 8969   2.502   8.870   5.957
 8970OM     OM1 8970   7.663   0.914   5.451
 8971OM     OM1 8971   6.121   0.761   4.285
 8972OM     OM1 8972   6.361   0.885   4.296
 8973OM     OM1 8973   6.244   0.838   4.066
 8974OM     OM1 8974   5.194   1.200   5.341
 8975OM     OM1 8975   4.550   1.233   8.502
 8976OM     OM1 8976   2.808   9.040   7.193
 8977OM     OM1 8977   2.731   8.776   7.603
 8978OM     OM1 8978   2.761   8.581   7.448
 8979OM     OM1 8979   7.186   1.132   1.045
 8980OM     OM1 8980   7.018   1.143   1.250
 8981OM     OM1 8981   7.023   0.942   1.096
 8982OM     OM1 8982   8.170   9.394   7.425
 8983OM     OM1 8983   8.245   0.006   7.291
 8984OM     OM1 8984   0.059   8.583   4.757
 8985OM     OM1 8985   0.227   8.403   4.845
 8986OM     OM1 8986   0.697   0.409   8.841
 8987OM     OM1 8987   6.187   8.854   1.951
 8988OM     OM1 8988   6.213   9.114   1.911
 8989OM     OM1 8989   6.166   9.014   2.153
 8990OM     OM1 8990   1.707   1.103   7.936
 8991OM     OM1 8991   3.583   0.454   3.934
 8992OM     OM1 8992   3.806   0.413   3.793
 8993OM     OM1 8993   6.332   0.818   0.520
 8994OM     OM1 8994   6.105   0.937   0.622
 8995OM     OM1 8995   8.673   8.907   0.177
 8996OM     OM1 8996   2.478   0.442   8.185
 8997OM     OM1 8997   2.606   0.658   8.123
 8998OM     OM1 8998   6.347   9.372   2.434
 8999OM     OM1 8999   0.679   0.416   7.737
 9000OM     OM1 9000   0.809   0.594   7.864
 9001OM     OM1 9001   3.171   8.314   8.505
 9002OM     OM1 9002   0.975   8.639   9.445
 9003OM     OM1 9003   0.796   8.538   9.601
 9004OM     OM1 9004   0.803   8.460   9.352
 9005OM     OM1 9005   3.487   1.231   7.630
 9006OM     OM1 9006   7.641   0.381   8.773
 9007OM     OM1 9007   7.668   0.134   8.755
 9008OM     OM1 9008   7.682   0.266   8.533
 9009OM     OM1 9009   2.407   8.603   9.272
 9010OM     OM1 9010   1.047   8.352   8.028
 9011OM     OM1 9011   5.180   1.285   9.437
 9012OM     OM1 9012   5.144   1.184   0.086
 9013OM     OM1 9013   2.986   9.019   5.541
 9014OM     OM1 9014   2.972   8.951   5.283
 9015OM     OM1 9015   5.848   0.726   6.974
 9016OM     OM1 9016   5.744   0.675   7.205
 9017OM     OM1 9017   5.777   0.609   6.751
 9018OM     OM1 9018   7.898   0.840   4.424
 9019OM     OM1 9019   4.311   9.367   3.059
 9020OM     OM1 9020   3.227   0.856   8.044
 9021OM     OM1 9021   3.096   1.092   8.076
 9022OM     OM1 9022   3.606   0.112   0.916
 9023OM     OM1 9023   3.580   0.327   0.770
 9024OM     OM1 9024   3.856   8.478   4.291
 9025OM     OM1 9025   4.035   8.316   4.395
 9026OM     OM1 9026   4.775   0.799   1.667
 9027OM     OM1 9027   4.687   0.589   1.790
 9028OM     OM1 9028   4.617   0.826   1.880
 9029OM     OM1 9029   3.786   8.523   4.737
 9030OM     OM1 9030   3.878   8.729   4.601
 9031OM     OM1 9031   7.651   1.142   0.521
 9032OM     OM1 9032   7.847   1.287   0.435
 9033OM     OM1 9033   7.892   1.087   0.597
 9034OM     OM1 9034   0.079   8.588   1.651
 9035OM     OM1 9035   1.649   8.400   8.824
 9036OM     OM1 9036   6.045   0.045   0.018
 9037OM     OM1 9037   6.250   0.140   0.132
 9038OM     OM1 9038   0.593   0.240   5.454
 9039OM     OM1 9039   0.657   0.025   5.592
 9040OM     OM1 9040   1.841   9.169   6.863
 9041OM     OM1 9041   1.842   9.588   7.009
 9042OM     OM1 9042   1.856   9.426   6.800
 9043OM     OM1 9043   2.068   9.282   6.838
 9044OM     OM1 9044   3.782   0.565   9.116
 9045OM     OM1 9045   4.318   9.455   2.183
 9046OM     OM1 9046   2.306   0.844   6.266
 9047OM     OM1 9047   2.410   1.048   6.150
 9048OM     OM1 9048   9.182   1.302   8.297
 9049OM     OM1 9049   5.913   9.118   5.997
 9050OM     OM1 9050   5.889   9.303   6.183
 9051OM     OM1 9051   5.733   8.634   5.318
 9052OM     OM1 9052   5.996   8.701   5.324
 9053OM     OM1 9053   5.183   8.578   3.759
 9054OM     OM1 9054   7.665   1.291   7.765
 9055OM     OM1 9055   7.843   1.164   7.640
 9056OM     OM1 9056   8.774   8.554   5.646
 9057OM     OM1 9057   7.947   0.224   6.566
 9058OM     OM1 9058   8.202   0.153   6.626
 9059OM     OM1 9059   8.104   0.404   6.652
 9060OM     OM1 9060   3.188   0.820   4.148
 9061OM     OM1 9061   3.513   1.090   3.852
 9062OM     OM1 9062   2.597   0.020   4.434
 9063OM     OM1 9063   2.465   0.170   4.283
 9064OM     OM1 9064   2.458   0.201   4.552
 9065OM     OM1 9065   0.806   9.546   3.676
 9066OM     OM1 9066   2.213   0.496   7.332
 9067OM     OM1 9067   3.761   8.314   3.448
 9068OM     OM1 9068   5.254   0.016   2.714
 9069OM     OM1 9069   5.235   0.243   2.645
 9070OM     OM1 9070   3.381   0.002   7.728
 9071OM     OM1 9071   3.550   9.534   7.902
 9072OM     OM1 9072   6.015   0.979   6.377
 9073OM     OM1 9073   6.218   0.605   6.329
 9074OM     OM1 9074   3.043   0.465   5.838
 9075OM     OM1 9075   3.283   0.523   5.929
 9076OM     OM1 9076   0.646   0.651   2.657
 9077OM     OM1 9077   0.581   0.787   2.874
 9078OM     OM1 9078   0.756   0.587   2.879
 9079OM     OM1 9079   0.501   0.547   2.860
 9080OM     OM1 9080   3.221   9.115   9.049
 9081OM     OM1 9081   3.205   8.875   8.958
 9082OM     OM1 9082   3.316   8.801   9.349
 9083OM     OM1 9083   3.141   8.923   9.208
 9084OM     OM1 9084   6.760   0.572   2.340
 9085OM     OM1 9085   5.971   0.786   1.898
 9086OM     OM1 9086   0.855   8.754   1.099
 9087OM     OM1 9087   6.867   0.661   5.503
 9088OM     OM1 9088   4.402   1.200   1.419
 9089OM     OM1 9089   4.388   1.208   1.681
 9090OM     OM1 9090   4.577   1.328   1.548
 9091OM     OM1 9091   8.715   8.489   7.848
 9092OM     OM1 9092   8.517   8.329   7.844
 9093OM     OM1 9093   8.561   8.513   8.055
 9094OM     OM1 9094   8.687   8.513   8.287
 9095OM     OM1 9095   8.740   8.695   8.116
 9096OM     OM1 9096   3.399   8.938   8.796
 9097OM     OM1 9097   3.216   8.772   8.724
 9098OM     OM1 9098   4.866   8.398   6.036
 9099OM     OM1 9099   8.970   0.162   8.781
 9100OM     OM1 9100   8.964   9.521   8.711
 9101OM     OM1 9101   7.065   9.417   7.165
 9102OM     OM1 9102   6.968   9.194   7.077
 9103OM     OM1 9103   4.521   1.223   0.147
 9104OM     OM1 9104   4.669   1.240   0.368
 9105OM     OM1 9105   2.830   9.582   8.013
 9106OM     OM1 9106   3.059   9.479   8.131
 9107OM     OM1 9107   3.035   9.581   7.886
 9108OM     OM1 9108   2.925   0.027   9.537
 9109OM     OM1 9109   3.103   0.603   4.031
 9110OM     OM1 9110   5.234   8.487   8.340
 9111OM     OM1 9111   5.472   8.371   8.140
 9112OM     OM1 9112   5.147   8.627   8.136
 9113OM     OM1 9113   1.556   0.877   8.225
 9114OM     OM1 9114   0.567   0.190   7.721
 9115OM     OM1 9115   0.817   0.108   7.693
 9116OM     OM1 9116   0.626   9.546   7.666
 9117OM     OM1 9117   7.204   0.854   3.872
 9118OM     OM1 9118   7.160   1.048   4.026
 9119OM     OM1 9119   7.071   1.182   3.822
 9120OM     OM1 9120   7.145   0.795   4.124
 9121OM     OM1 9121   7.134   9.394   2.545
 9122OM     OM1 9122   6.959   9.209   2.486
 9123OM     OM1 9123   7.152   8.798   0.395
 9124OM     OM1 9124   7.288   8.653   0.238
 9125OM     OM1 9125   7.068   8.785   0.148
 9126OM     OM1 9126   7.126   8.990   9.604
 9127OM     OM1 9127   3.177   0.147   7.761
 9128OM     OM1 9128   2.936   0.143   7.682
 9129OM     OM1 9129   6.408   9.097   9.203
 9130OM     OM1 9130   2.779   9.081   4.572
 9131OM     OM1 9131   2.847   9.033   4.331
 9132OM     OM1 9132   3.043   9.067   4.509
 9133OM     OM1 9133   2.904   9.268   4.425
 9134OM     OM1 9134   0.833   9.578   0.234
 9135OM     OM1 9135   6.186   0.240   4.587
 9136OM     OM1 9136   6.170   0.390   4.374
 9137OM     OM1 9137   3.550   9.027   2.718
 9138OM     OM1 9138   3.471   8.922   2.484
 9139OM     OM1 9139   4.077   8.333   0.730
 9140OM     OM1 9140   4.141   8.320   0.979
 9141OM     OM1 9141   2.279   0.117   1.338
 9142OM     OM1 9142   4.561   9.362   2.967
 9143OM     OM1 9143   7.305   1.200   4.944
 9144OM     OM1 9144   7.244   1.120   4.700
 9145OM     OM1 9145   8.578   0.653   8.782
 9146OM     OM1 9146   9.197   9.561   8.828
 9147OM     OM1 9147   9.182   0.048   9.076
 9148OM     OM1 9148   9.328   9.447   9.017
 9149OM     OM1 9149   2.208   9.399   9.108
 9150OM     OM1 9150   2.388   9.291   9.258
 9151OM     OM1 9151   2.278   9.151   9.067
 9152OM     OM1 9152   3.659   0.268   7.060
 9153OM     OM1 9153   3.653   0.509   7.148
 9154OM     OM1 9154   3.434   0.384   7.157
 9155OM     OM1 9155   6.755   8.901   7.565
 9156OM     OM1 9156   7.002   0.239   8.314
 9157OM     OM1 9157   7.264   0.260   8.332
 9158OM     OM1 9158   6.713   0.831   8.482
 9159OM     OM1 9159   6.973   1.044   8.285
 9160OM     OM1 9160   3.207   0.385   1.510
 9161OM     OM1 9161   3.261   0.626   1.566
 9162OM     OM1 9162   3.332   0.528   1.337
 9163OM     OM1 9163   0.926   8.489   2.341
 9164OM     OM1 9164   0.746   8.315   2.299
 9165OM     OM1 9165   0.675   8.548   2.403
 9166OM     OM1 9166   0.759   0.144   6.793
 9167OM     OM1 9167   0.500   0.145   6.811
 9168OM     OM1 9168   4.533   8.373   8.329
 9169OM     OM1 9169   4.756   8.585   1.775
 9170OM     OM1 9170   8.516   0.377   2.472
 9171OM     OM1 9171   8.672   0.203   2.596
 9172OM     OM1 9172   3.493   8.403   2.822
 9173OM     OM1 9173   8.585   0.291   8.270
 9174OM     OM1 9174   8.781   0.219   7.896
 9175OM     OM1 9175   8.651   0.419   8.064
 9176OM     OM1 9176   4.573   0.818   8.671
 9177OM     OM1 9177   4.489   0.684   8.869
 9178OM     OM1 9178   1.359   0.573   6.646
 9179OM     OM1 9179   0.958   8.691   9.124
 9180OM     OM1 9180   1.313   8.419   8.882
 9181OM     OM1 9181   1.102   8.530   9.267
 9182OM     OM1 9182   7.045   0.861   7.711
 9183OM     OM1 9183   9.334   8.425   6.050
 9184OM     OM1 9184   9.479   8.645   6.032
 9185OM     OM1 9185   4.190   9.164   7.578
 9186OM     OM1 9186   4.371   9.418   8.442
 9187OM     OM1 9187   7.591   8.790   5.296
 9188OM     OM1 9188   1.393   0.613   6.050
 9189OM     OM1 9189   8.281   1.349   5.480
 9190OM     OM1 9190   8.275   1.240   5.241
 9191OM     OM1 9191   8.477   1.384   5.320
 9192OM     OM1 9192   2.826   8.643   1.129
 9193OM     OM1 9193   1.994   1.295   1.134
 9194OM     OM1 9194   9.335   1.367   5.109
 9195OM     OM1 9195   7.558   0.857   8.149
 9196OM     OM1 9196   5.512   0.206   4.089
 9197OM     OM1 9197   5.380   9.602   4.179
 9198OM     OM1 9198   3.807   0.928   0.301
 9199OM     OM1 9199   3.917   0.869   0.077
 9200OM     OM1 9200   4.042   0.806   0.310
 9201OM     OM1 9201   0.817   1.025   6.940
 9202OM     OM1 9202   1.044   1.144   6.983
 9203OM     OM1 9203   6.924   9.536   3.526
 9204OM     OM1 9204   6.881   0.108   3.327
 9205OM     OM1 9205   2.933   8.733   3.956
 9206OM     OM1 9206   2.816   8.920   4.093
 9207OM     OM1 9207   3.956   9.383   5.012
 9208OM     OM1 9208   3.861   9.306   4.786
 9209OM     OM1 9209   4.081   9.189   4.886
 9210OM     OM1 9210   9.037   1.090   5.393
 9211OM     OM1 9211   9.036   0.852   5.304
 9212OM     OM1 9212   8.829   1.016   5.260
 9213OM     OM1 9213   2.002   9.300   5.249
 9214OM     OM1 9214   9.313   9.066   7.357
 9215OM     OM1 9215   9.187   0.953   4.431
 9216OM     OM1 9216   8.856   1.112   4.367
 9217OM     OM1 9217   2.804   0.917   4.966
 9218OM     OM1 9218   2.662   1.132   5.000
 9219OM     OM1 9219   9.350   0.903   3.259
 9220OM     OM1 9220   3.649   0.224   8.571
 9221OM     OM1 9221   3.599   0.278   8.823
 9222OM     OM1 9222   4.155   0.718   6.472
 9223OM     OM1 9223   7.730   0.479   1.806
 9224OM     OM1 9224   7.854   0.707   1.825
 9225OM     OM1 9225   1.437   0.370   5.966
 9226OM     OM1 9226   5.968   9.231   0.952
 9227OM     OM1 9227   5.887   9.463   1.053
 9228OM     OM1 9228   1.179   0.072   1.722
 9229OM     OM1 9229   2.044   1.206   7.150
 9230OM     OM1 9230   1.804   1.162   7.248
 9231OM     OM1 9231   1.900   1.010   7.068
 9232OM     OM1 9232   3.853   0.639   4.790
 9233OM     OM1 9233   3.653   0.538   4.929
 9234OM     OM1 9234   2.253   0.897   7.809
 9235OM     OM1 9235   2.420   0.786   7.990
 9236OM     OM1 9236   1.644   0.073   2.083
 9237OM     OM1 9237   1.887   9.580   2.164
 9238OM     OM1 9238   7.671   0.781   0.945
 9239OM     OM1 9239   7.701   0.524   0.943
 9240OM     OM1 9240   9.389   8.659   2.883
 9241OM     OM1 9241   9.146   8.620   2.972
 9242OM     OM1 9242   9.270   8.853   3.011
 9243OM     OM1 9243   2.639   9.443   1.379
 9244OM     OM1 9244   2.713   9.367   1.142
 9245OM     OM1 9245   5.852   0.863   5.208
 9246OM     OM1 9246   5.838   0.910   5.470
 9247OM     OM1 9247   5.676   1.022   5.313
 9248OM     OM1 9248   9.074   8.657   8.610
 9249OM     OM1 9249   8.851   8.627   8.728
 9250OM     OM1 9250   8.854   8.593   8.474
 9251OM     OM1 9251   5.779   0.431   0.727
 9252OM     OM1 9252   5.980   0.309   0.844
 9253OM     OM1 9253   3.152   0.368   6.773
 9254OM     OM1 9254   7.561   8.358   8.166
 9255OM     OM1 9255   4.907   9.243   1.374
 9256OM     OM1 9256   4.733   9.256   1.186
 9257OM     OM1 9257   8.744   8.962   6.770
 9258OM     OM1 9258   8.622   8.890   6.559
 9259OM     OM1 9259   8.872   9.297   3.430
 9260OM     OM1 9260   9.026   9.165   3.608
 9261OM     OM1 9261   1.093   8.680   0.292
 9262OM     OM1 9262   1.230   8.829   0.446
 9263OM     OM1 9263   2.563   8.297   7.525
 9264OM     OM1 9264   2.811   8.329   7.453
 9265OM     OM1 9265   8.940   8.608   8.963
 9266OM     OM1 9266   5.139   0.309   1.643
 9267OM     OM1 9267   5.274   0.209   1.842
 9268OM     OM1 9268   5.162   0.457   1.856
 9269OM     OM1 9269   5.548   1.397   7.333
 9270OM     OM1 9270   5.360   1.181   0.205
 9271OM     OM1 9271   5.611   1.187   0.154
 9272OM     OM1 9272   3.852   8.997   5.290
 9273OM     OM1 9273   3.621   9.077   5.177
 9274OM     OM1 9274   3.850   9.174   5.111
 9275OM     OM1 9275   5.608   8.976   5.850
 9276OM     OM1 9276   0.515   1.252   6.509
 9277OM     OM1 9277   5.761   0.716   3.534
 9278OM     OM1 9278   5.935   9.098   0.076
 9279OM     OM1 9279   8.329   9.178   2.731
 9280OM     OM1 9280   8.118   9.200   2.884
 9281OM     OM1 9281   8.205   8.965   2.794
 9282OM     OM1 9282   6.883   9.094   6.860
 9283OM     OM1 9283   1.399   8.522   1.582
 9284OM     OM1 9284   1.202   8.248   1.312
 9285OM     OM1 9285   7.293   0.760   3.632
 9286OM     OM1 9286   9.452   8.382   0.205
 9287OM     OM1 9287   3.776   8.639   0.866
 9288OM     OM1 9288   3.969   8.518   1.003
 9289OM     OM1 9289   0.925   8.599   3.486
 9290OM     OM1 9290   1.144   8.738   3.494
 9291OM     OM1 9291   0.936   8.863   3.553
 9292OM     OM1 9292   1.796   9.165   5.351
 9293OM     OM1 9293   1.786   9.240   5.104
 9294OM     OM1 9294   7.326   8.583   7.312
 9295OM     OM1 9295   7.558   9.052   9.349
 9296OM     OM1 9296   7.368   9.062   9.529
 9297OM     OM1 9297   2.025   8.746   0.105
 9298OM     OM1 9298   1.880   8.622   9.529
 9299OM     OM1 9299   1.861   8.877   9.548
 9300OM     OM1 9300   2.547   9.395   8.825
 9301OM     OM1 9301   2.721   9.602   8.829
 9302OM     OM1 9302   5.527   9.451   7.337
 9303OM     OM1 9303   5.603   9.379   7.093
 9304OM     OM1 9304   7.869   9.193   2.931
 9305OM     OM1 9305   6.707   1.128   4.056
 9306OM     OM1 9306   6.638   0.969   3.866
 9307OM     OM1 9307   6.810   1.155   3.811
 9308OM     OM1 9308   3.139   0.537   9.088
 9309OM     OM1 9309   7.814   0.400   3.366
 9310OM     OM1 9310   0.657   0.331   5.000
 9311OM     OM1 9311   0.572   0.390   5.246
 9312OM     OM1 9312   0.999   8.750   4.868
 9313OM     OM1 9313   0.847   8.576   4.731
 9314OM     OM1 9314   0.808   8.606   4.982
 9315OM     OM1 9315   5.002   0.177   0.487
 9316OM     OM1 9316   4.807   0.348   0.528
 9317OM     OM1 9317   1.605   9.345   1.020
 9318OM     OM1 9318   0.808   9.463   2.795
 9319OM     OM1 9319   0.894   0.104   2.795
 9320OM     OM1 9320   0.716   0.029   2.965
 9321OM     OM1 9321   0.262   0.927   4.027
 9322OM     OM1 9322   0.489   0.817   3.950
 9323OM     OM1 9323   9.126   8.857   6.100
 9324OM     OM1 9324   2.161   8.899   7.133
 9325OM     OM1 9325   1.956   8.960   6.981
 9326OM     OM1 9326   6.784   0.373   8.357
 9327OM     OM1 9327   6.719   0.572   8.516
 9328OM     OM1 9328   7.684   8.794   1.609
 9329OM     OM1 9329   7.271   8.495   1.600
 9330OM     OM1 9330   3.047   0.587   2.850
 9331OM     OM1 9331   2.690   9.387   0.874
 9332OM     OM1 9332   2.780   9.176   0.987
 9333OM     OM1 9333   2.523   9.236   1.010
 9334OM     OM1 9334   0.409   0.285   4.537
 9335OM     OM1 9335   0.606   0.133   4.587
 9336OM     OM1 9336   8.289   8.907   4.698
 9337OM     OM1 9337   6.206   9.124   2.387
 9338OM     OM1 9338   6.152   8.866   2.358
 9339OM     OM1 9339   9.174   0.688   0.380
 9340OM     OM1 9340   2.166   0.701   2.195
 9341OM     OM1 9341   1.961   0.797   2.322
 9342OM     OM1 9342   7.273   9.367   1.563
 9343OM     OM1 9343   7.409   9.448   1.773
 9344OM     OM1 9344   0.099   1.059   9.536
 9345OM     OM1 9345   0.023   0.835   0.033
 9346OM     OM1 9346   2.926   0.124   4.081
 9347OM     OM1 9347   7.399   9.079   4.455
 9348OM     OM1 9348   7.456   1.453   7.753
 9349OM     OM1 9349   2.431   9.153   8.861
 9350OM     OM1 9350   3.028   9.078   7.073
 9351OM     OM1 9351   2.531   9.276   6.935
 9352OM     OM1 9352   2.701   9.407   7.071
 9353OM     OM1 9353   1.784   8.415   5.773
 9354OM     OM1 9354   1.784   9.187   7.930
 9355OM     OM1 9355   5.982   9.050   4.036
 9356OM     OM1 9356   6.068   8.906   4.234
 9357OM     OM1 9357   9.583   0.369   0.884
 9358OM     OM1 9358   8.019   0.680   1.140
 9359OM     OM1 9359   8.268   0.937   1.313
 9360OM     OM1 9360   8.141   0.894   1.093
 9361OM     OM1 9361   3.099   0.485   8.185
 9362OM     OM1 9362   9.044   1.035   4.221
 9363OM     OM1 9363   4.629   9.262   5.026
 9364OM     OM1 9364   4.863   9.171   4.972
 9365OM     OM1 9365   3.184   0.199   5.127
 9366OM     OM1 9366   2.968   0.240   4.987
 9367OM     OM1 9367   3.198   0.308   4.893
 9368OM     OM1 9368   3.125   8.773   5.929
 9369OM     OM1 9369   3.135   8.942   5.737
 9370OM     OM1 9370   2.731   0.576   0.469
 9371OM     OM1 9371   6.658   0.769   0.828
 9372OM     OM1 9372   6.656   0.613   0.624
 9373OM     OM1 9373   2.199   0.674   5.382
 9374OM     OM1 9374   2.187   0.993   9.510
 9375OM     OM1 9375   1.747   8.316   0.631
 9376OM     OM1 9376   9.310   0.910   3.989
 9377OM     OM1 9377   9.251   0.687   3.865
 9378OM     OM1 9378   1.567   0.147   2.949
 9379OM     OM1 9379   1.370   0.281   2.830
 9380OM     OM1 9380   1.213   9.392   2.087
 9381OM     OM1 9381   1.384   9.356   1.903
 9382OM     OM1 9382   1.534   0.216   5.451
 9383OM     OM1 9383   1.603   9.595   5.340
 9384OM     OM1 9384   1.863   8.681   7.936
 9385OM     OM1 9385   8.273   8.731   2.894
 9386OM     OM1 9386   8.293   8.586   3.116
 9387OM     OM1 9387   8.429   8.807   3.078
 9388OM     OM1 9388   7.595   1.123   5.908
 9389OM     OM1 9389   4.716   8.961   0.696
 9390OM     OM1 9390   4.823   9.200   0.711
 9391OM     OM1 9391   3.266   0.322   7.349
 9392OM     OM1 9392   1.565   0.629   8.647
 9393OM     OM1 9393   5.750   8.624   4.062
 9394OM     OM1 9394   5.525   8.530   4.157
 9395OM     OM1 9395   5.602   8.430   3.945
 9396OM     OM1 9396   6.740   9.385   6.219
 9397OM     OM1 9397   8.559   9.016   2.476
 9398OM     OM1 9398   8.508   9.233   2.336
 9399OM     OM1 9399   8.318   9.032   2.367
 9400OM     OM1 9400   4.592   9.326   0.717
 9401OM     OM1 9401   7.831   0.268   1.915
 9402OM     OM1 9402   1.032   1.236   8.131
 9403OM     OM1 9403   0.784   1.188   8.181
 9404OM     OM1 9404   7.629   0.731   0.013
 9405OM     OM1 9405   3.864   1.366   9.211
 9406OM     OM1 9406   5.394   0.248   0.165
 9407OM     OM1 9407   5.235   0.791   1.873
 9408OM     OM1 9408   5.246   0.621   2.057
 9409OM     OM1 9409   8.715   0.603   1.194
 9410OM     OM1 9410   7.272   0.451   6.227
 9411OM     OM1 9411   7.316   0.596   6.015
 9412OM     OM1 9412   6.928   8.931   7.049
 9413OM     OM1 9413   6.690   8.881   7.127
 9414OM     OM1 9414   5.270   8.932   9.477
 9415OM     OM1 9415   9.233   8.676   8.125
 9416OM     OM1 9416   9.193   8.682   8.391
 9417OM     OM1 9417   9.152   8.887   8.255
 9418OM     OM1 9418   8.989   8.701   8.207
 9419OM     OM1 9419   6.135   9.043   6.670
 9420OM     OM1 9420   5.082   9.127   5.930
 9421OM     OM1 9421   5.262   9.291   5.812
 9422OM     OM1 9422   5.007   9.303   5.755
 9423OM     OM1 9423   8.807   8.436   1.516
 9424OM     OM1 9424   8.977   8.368   1.327
 9425OM     OM1 9425   9.014   8.594   1.465
 9426OM     OM1 9426   1.956   0.084   9.413
 9427OM     OM1 9427   6.464   0.371   5.843
 9428OM     OM1 9428   2.550   0.554   0.655
 9429OM     OM1 9429   2.519   0.595   0.903
 9430OM     OM1 9430   1.608   1.234   9.367
 9431OM     OM1 9431   6.251   8.901   7.303
 9432OM     OM1 9432   2.635   9.459   5.723
 9433OM     OM1 9433   2.714   0.094   5.689
 9434OM     OM1 9434   2.171   0.010   3.231
 9435OM     OM1 9435   8.538   9.130   6.768
 9436OM     OM1 9436   8.304   9.212   6.660
 9437OM     OM1 9437   6.108   0.359   0.140
 9438OM     OM1 9438   9.440   0.119   4.777
 9439OM     OM1 9439   9.538   0.196   5.002
 9440OM     OM1 9440   0.554   0.004   6.608
 9441OM     OM1 9441   8.920   8.392   8.326
 9442OM     OM1 9442   3.958   0.271   5.430
 9443OM     OM1 9443   3.844   0.501   5.365
 9444OM     OM1 9444   8.899   1.101   1.230
 9445OM     OM1 9445   5.715   0.075   1.011
 9446OM     OM1 9446   5.967   0.090   0.971
 9447OM     OM1 9447   5.800   9.546   0.820
 9448OM     OM1 9448   3.225   8.490   7.573
 9449OM     OM1 9449   2.966   8.499   7.594
 9450OM     OM1 9450   3.132   8.641   7.759
 9451OM     OM1 9451   7.629   9.326   6.383
 9452OM     OM1 9452   7.723   0.098   6.578
 9453OM     OM1 9453   3.641   8.955   1.249
 9454OM     OM1 9454   3.753   9.200   1.263
 9455OM     OM1 9455   3.979   9.363   0.717
 9456OM     OM1 9456   4.870   8.315   9.134
 9457OM     OM1 9457   7.133   9.049   6.924
 9458OM     OM1 9458   6.941   8.324   1.950
 9459OM     OM1 9459   6.902   0.955   6.490
 9460OM     OM1 9460   7.110   1.105   6.570
 9461OM     OM1 9461   5.851   0.173   3.034
 9462OM     OM1 9462   5.735   0.177   2.804
 9463OM     OM1 9463   5.887   0.378   2.875
 9464OM     OM1 9464   6.313   8.362   4.637
 9465OM     OM1 9465   2.823   1.093   4.784
 9466OM     OM1 9466   1.474   0.822   3.905
 9467OM     OM1 9467   8.864   0.778   7.299
 9468OM     OM1 9468   8.777   0.550   7.191
 9469OM     OM1 9469   4.479   0.945   0.537
 9470OM     OM1 9470   4.655   0.834   0.686
 9471OM     OM1 9471   4.713   1.062   0.554
 9472OM     OM1 9472   8.820   8.981   2.471
 9473OM     OM1 9473   4.975   9.107   5.197
 9474OM     OM1 9474   4.956   9.350   5.133
 9475OM     OM1 9475   4.732   8.909   8.502
 9476OM     OM1 9476   4.581   9.104   8.587
 9477OM     OM1 9477   4.684   9.110   8.351
 9478OM     OM1 9478   2.875   1.060   1.884
 9479OM     OM1 9479   7.012   1.074   1.677
 9480OM     OM1 9480   6.866   0.892   1.575
 9481OM     OM1 9481   3.695   1.111   8.679
 9482OM     OM1 9482   7.129   8.640   2.679
 9483OM     OM1 9483   3.104   8.836   3.425
 9484OM     OM1 9484   1.674   9.470   5.118
 9485OM     OM1 9485   1.355   0.017   5.420
 9486OM     OM1 9486   5.253   9.212   0.057
 9487OM     OM1 9487   4.968   9.405   9.463
 9488OM     OM1 9488   9.443   0.663   6.471
 9489OM     OM1 9489   9.232   0.523   6.521
 9490OM     OM1 9490   7.698   0.071   1.216
 9491OM     OM1 9491   7.868   0.243   1.159
 9492OM     OM1 9492   5.326   1.320   7.226
 9493OM     OM1 9493   4.185   0.913   7.078
 9494OM     OM1 9494   7.733   0.324   6.437
 9495OM     OM1 9495   0.426   9.167   0.542
 9496OM     OM1 9496   7.996   9.318   4.965
 9497OM     OM1 9497   0.217   9.358   6.021
 9498OM     OM1 9498   0.119   9.347   6.257
 9499OM     OM1 9499   4.094   1.116   1.615
 9500OM     OM1 9500   5.198   1.262   4.498
 9501OM     OM1 9501   4.696   9.229   0.932
 9502OM     OM1 9502   4.509   9.157   1.104
 9503OM     OM1 9503   7.660   9.124   7.257
 9504OM     OM1 9504   8.992   8.487   4.729
 9505OM     OM1 9505   1.342   1.260   7.379
 9506OM     OM1 9506   1.165   1.166   7.546
 9507OM     OM1 9507   0.968   0.703   0.241
 9508OM     OM1 9508   0.882   0.592   0.010
 9509OM     OM1 9509   1.422   1.018   4.854
 9510OM     OM1 9510   4.563   8.462   0.121
 9511OM     OM1 9511   4.872   8.596   0.445
 9512OM     OM1 9512   4.687   8.744   0.549
 9513OM     OM1 9513   1.726   9.227   4.686
 9514OM     OM1 9514   1.577   9.447   4.697
 9515OM     OM1 9515   1.478   9.198   4.712
 9516OM     OM1 9516   1.619   9.308   4.911
 9517OM     OM1 9517   3.942   1.017   7.152
 9518OM     OM1 9518   6.954   9.041   2.288
 9519OM     OM1 9519   0.877   0.973   5.010
 9520OM     OM1 9520   5.101   8.425   1.461
 9521OM     OM1 9521   3.852   0.711   1.412
 9522OM     OM1 9522   8.540   0.225   2.881
 9523OM     OM1 9523   2.785   9.465   1.729
 9524OM     OM1 9524   3.017   9.435   1.852
 9525OM     OM1 9525   8.659   0.714   2.803
 9526OM     OM1 9526   7.091   0.921   1.881
 9527OM     OM1 9527   8.767   1.007   6.676
 9528OM     OM1 9528   8.720   0.784   6.554
 9529OM     OM1 9529   1.464   0.633   2.717
 9530OM     OM1 9530   1.246   0.504   2.798
 9531OM     OM1 9531   1.247   0.760   2.706
 9532OM     OM1 9532   3.119   0.097   3.912
 9533OM     OM1 9533   2.949   9.511   3.945
 9534OM     OM1 9534   2.922   9.382   4.183
 9535OM     OM1 9535   1.880   0.037   9.160
 9536OM     OM1 9536   7.635   0.128   8.057
 9537OM     OM1 9537   7.703   9.586   7.861
 9538OM     OM1 9538   6.373   8.912   9.390
 9539OM     OM1 9539   6.408   8.836   0.025
 9540OM     OM1 9540   0.770   0.133   4.842
 9541OM     OM1 9541   6.549   1.156   9.307
 9542OM     OM1 9542   6.326   1.181   9.176
 9543OM     OM1 9543   6.465   0.961   9.152
 9544OM     OM1 9544   6.348   1.014   9.382
 9545OM     OM1 9545   8.065   9.295   1.957
 9546OM     OM1 9546   1.901   0.232   5.813
 9547OM     OM1 9547   6.795   8.521   9.080
 9548OM     OM1 9548   6.988   8.390   8.964
 9549OM     OM1 9549   1.938   8.241   8.944
 9550OM     OM1 9550   4.793   0.869   2.869
 9551OM     OM1 9551   4.867   0.899   2.614
 9552OM     OM1 9552   0.676   9.041   1.337
 9553OM     OM1 9553   0.792   8.938   1.552
 9554OM     OM1 9554   0.792   8.801   1.337
 9555OM     OM1 9555   5.990   0.612   7.162
 9556OM     OM1 9556   6.558   8.503   6.351
 9557OM     OM1 9557   6.635   8.511   6.102
 9558OM     OM1 9558   7.788   1.438   3.801
 9559OM     OM1 9559   3.427   9.141   6.363
 9560OM     OM1 9560   3.693   9.189   6.364
 9561OM     OM1 9561   8.266   8.318   6.908
 9562OM     OM1 9562   8.262   8.379   6.644
 9563OM     OM1 9563   2.152   1.308   7.360
 9564OM     OM1 9564   3.080   8.722   8.502
 9565OM     OM1 9565   7.221   0.912   4.550
 9566OM     OM1 9566   7.414   0.936   4.724
 9567OM     OM1 9567   2.456   0.033   5.660
 9568OM     OM1 9568   5.999   8.300   2.883
 9569OM     OM1 9569   9.356   8.874   5.977
 9570OM     OM1 9570   9.544   8.783   5.820
 9571OM     OM1 9571   1.851   0.259   9.030
 9572OM     OM1 9572   1.654   9.240   4.441
 9573OM     OM1 9573   3.891   8.556   8.676
 9574OM     OM1 9574   4.125   8.459   1.625
 9575OM     OM1 9575   4.279   8.503   1.408
 9576OM     OM1 9576   2.735   8.524   2.837
 9577OM     OM1 9577   2.786   8.740   2.698
 9578OM     OM1 9578   1.586   8.456   4.177
 9579OM     OM1 9579   4.331   9.038   9.292
 9580OM     OM1 9580   7.867   0.028   8.859
 9581OM     OM1 9581   6.305   1.191   3.530
 9582OM     OM1 9582   6.115   1.040   3.611
 9583OM     OM1 9583   6.111   1.294   3.665
 9584OM     OM1 9584   7.075   8.797   3.426
 9585OM     OM1 9585   7.045   8.617   3.632
 9586OM     OM1 9586   4.151   0.596   7.231
 9587OM     OM1 9587   7.811   0.916   7.572
 9588OM     OM1 9588   0.629   0.731   7.999
 9589OM     OM1 9589   0.880   0.807   7.989
 9590OM     OM1 9590   0.801   0.590   8.126
 9591OM     OM1 9591   6.233   0.592   9.541
 9592OM     OM1 9592   6.179   0.835   9.468
 9593OM     OM1 9593   6.123   0.916   3.841
 9594OM     OM1 9594   6.388   0.909   3.864
 9595OM     OM1 9595   3.829   0.659   9.562
 9596OM     OM1 9596   3.673   0.624   0.166
 9597OM     OM1 9597   3.719   0.874   9.502
 9598OM     OM1 9598   9.064   8.549   2.045
 9599OM     OM1 9599   8.825   8.603   2.148
 9600OM     OM1 9600   7.669   0.729   5.063
 9601OM     OM1 9601   7.782   8.477   3.047
 9602OM     OM1 9602   7.972   8.309   3.090
 9603OM     OM1 9603   9.515   8.469   1.492
 9604OM     OM1 9604   6.340   9.185   0.026
 9605OM     OM1 9605   6.509   9.128   9.438
 9606OM     OM1 9606   9.334   8.367   0.439
 9607OM     OM1 9607   9.539   0.726   7.567
 9608OM     OM1 9608   9.284   0.668   7.600
 9609OM     OM1 9609   5.105   9.492   8.036
 9610OM     OM1 9610   5.208   9.274   7.933
 9611OM     OM1 9611   5.077   9.270   8.157
 9612OM     OM1 9612   4.599   0.301   1.366
 9613OM     OM1 9613   4.646   0.469   1.562
 9614OM     OM1 9614   7.622   8.623   3.837
 9615OM     OM1 9615   7.604   8.637   4.093
 9616OM     OM1 9616   0.452   8.684   2.799
 9617OM     OM1 9617   0.672   8.806   2.827
 9618OM     OM1 9618   9.017   0.623   3.081
 9619OM     OM1 9619   6.437   9.218   5.135
 9620OM     OM1 9620   3.774   9.056   4.112
 9621OM     OM1 9621   6.544   8.505   9.067
 9622OM     OM1 9622   8.075   8.224   0.156
 9623OM     OM1 9623   0.678   8.557   8.721
 9624OM     OM1 9624   0.792   8.637   8.493
 9625OM     OM1 9625   0.942   8.586   8.685
 9626OM     OM1 9626   5.868   0.362   5.234
 9627OM     OM1 9627   6.097   0.249   5.207
 9628OM     OM1 9628   5.998   0.409   5.015
 9629OM     OM1 9629   6.096   0.507   5.232
 9630OM     OM1 9630   8.393   0.894   4.508
 9631OM     OM1 9631   8.447   1.077   4.698
 9632OM     OM1 9632   8.367   8.832   6.556
 9633OM     OM1 9633   8.486   8.884   6.327
 9634OM     OM1 9634   8.216   8.980   6.707
 9635OM     OM1 9635   1.828   0.889   3.108
 9636OM     OM1 9636   1.569   0.920   3.111
 9637OM     OM1 9637   3.653   9.428   1.350
 9638OM     OM1 9638   2.660   0.882   7.980
 9639OM     OM1 9639   2.533   0.897   8.199
 9640OM     OM1 9640   0.138   8.957   4.047
 9641OM     OM1 9641   7.168   0.305   7.547
 9642OM     OM1 9642   4.127   8.455   1.202
 9643OM     OM1 9643   3.931   8.300   1.128
 9644OM     OM1 9644   3.991   1.326   5.001
 9645OM     OM1 9645   3.904   1.303   5.246
 9646OM     OM1 9646   4.928   8.854   4.448
 9647OM     OM1 9647   5.010   8.820   4.693
 9648OM     OM1 9648   8.198   1.245   0.858
 9649OM     OM1 9649   5.154   0.872   4.211
 9650OM     OM1 9650   5.233   1.020   4.405
 9651OM     OM1 9651   5.414   0.917   4.239
 9652OM     OM1 9652   2.969   1.153   1.076
 9653OM     OM1 9653   5.583   8.335   0.276
 9654OM     OM1 9654   8.668   1.126   0.455
 9655OM     OM1 9655   8.142   0.824   9.375
 9656OM     OM1 9656   8.344   0.974   9.361
 9657OM     OM1 9657   7.592   9.301   0.434
 9658OM     OM1 9658   3.998   0.881   1.561
 9659OM     OM1 9659   4.061   0.636   1.542
 9660OM     OM1 9660   3.853   0.689   1.676
 9661OM     OM1 9661   4.256   8.570   4.192
 9662OM     OM1 9662   4.012   8.588   4.125
 9663OM     OM1 9663   4.160   8.394   4.025
 9664OM     OM1 9664   4.872   8.945   5.377
 9665OM     OM1 9665   3.236   8.560   1.988
 9666OM     OM1 9666   3.049   8.703   2.101
 9667OM     OM1 9667   4.251   8.487   6.397
 9668OM     OM1 9668   4.348   8.365   6.611
 9669OM     OM1 9669   4.392   8.616   6.571
 9670OM     OM1 9670   4.515   8.451   6.422
 9671OM     OM1 9671   6.601   9.131   4.183
 9672OM     OM1 9672   8.585   8.229   5.355
 9673OM     OM1 9673   0.618   1.195   0.047
 9674OM     OM1 9674   6.235   8.583   4.754
 9675OM     OM1 9675   7.571   0.284   1.899
 9676OM     OM1 9676   1.296   9.499   8.077
 9677OM     OM1 9677   0.190   1.014   3.064
 9678OM     OM1 9678   0.326   1.232   3.046
 9679OM     OM1 9679   0.130   1.200   2.886
 9680OM     OM1 9680   9.438   9.234   4.761
 9681OM     OM1 9681   9.407   9.481   4.694
 9682OM     OM1 9682   9.195   9.339   4.761
 9683OM     OM1 9683   6.727   8.477   1.950
 9684OM     OM1 9684   2.614   9.031   4.204
 9685OM     OM1 9685   3.781   8.980   6.252
 9686OM     OM1 9686   3.560   8.814   6.278
 9687OM     OM1 9687   9.147   0.168   1.000
 9688OM     OM1 9688   9.109   0.388   0.886
 9689OM     OM1 9689   5.457   9.258   6.176
 9690OM     OM1 9690   9.395   8.231   6.580
 9691OM     OM1 9691   6.764   8.378   6.445
 9692OM     OM1 9692   8.716   0.351   0.354
 9693OM     OM1 9693   1.712   9.043   9.393
 9694OM     OM1 9694   5.376   0.254   5.630
 9695OM     OM1 9695   5.143   0.348   5.559
 9696OM     OM1 9696   2.045   8.919   0.299
 9697OM     OM1 9697   2.153   9.135   0.406
 9698OM     OM1 9698   3.956   8.715   4.352
 9699OM     OM1 9699   5.509   1.091   3.761
 9700OM     OM1 9700   5.505   1.030   4.017
 9701OM     OM1 9701   5.730   1.102   3.924
 9702OM     OM1 9702   9.280   9.185   3.614
 9703OM     OM1 9703   9.458   9.237   3.785
 9704OM     OM1 9704   9.351   9.440   3.690
 9705OM     OM1 9705   4.018   9.242   7.156
 9706OM     OM1 9706   4.260   9.242   7.060
 9707OM     OM1 9707   3.922   9.479   7.202
 9708OM     OM1 9708   3.071   8.448   6.653
 9709OM     OM1 9709   7.013   0.089   2.897
 9710OM     OM1 9710   7.695   0.574   6.448
 9711OM     OM1 9711   7.513   0.419   6.328
 9712OM     OM1 9712   8.495   8.587   0.819
 9713OM     OM1 9713   8.245   8.509   0.828
 9714OM     OM1 9714   1.177   8.577   2.290
 9715OM     OM1 9715   1.036   8.657   2.499
 9716OM     OM1 9716   2.732   0.461   0.973
 9717OM     OM1 9717   2.935   0.333   1.095
 9718OM     OM1 9718   6.301   0.315   0.315
 9719OM     OM1 9719   1.300   9.187   5.255
 9720OM     OM1 9720   1.102   9.237   5.417
 9721OM     OM1 9721   1.060   9.142   5.180
 9722OM     OM1 9722   8.500   0.628   8.075
 9723OM     OM1 9723   8.708   0.784   8.129
 9724OM     OM1 9724   9.271   8.554   0.268
 9725OM     OM1 9725   6.347   0.387   0.067
 9726OM     OM1 9726   8.651   9.062   6.998
 9727OM     OM1 9727   0.263   1.237   7.313
 9728OM     OM1 9728   7.921   0.586   6.590
 9729OM     OM1 9729   3.623   0.240   0.295
 9730OM     OM1 9730   3.515   0.476   0.301
 9731OM     OM1 9731   2.737   9.087   1.949
 9732OM     OM1 9732   5.173   1.160   6.764
 9733OM     OM1 9733   5.235   1.001   6.566
 9734OM     OM1 9734   4.999   1.100   6.571
 9735OM     OM1 9735   5.075   0.916   6.742
 9736OM     OM1 9736   2.457   9.165   7.156
 9737OM     OM1 9737   2.377   9.404   7.104
 9738OM     OM1 9738   2.282   9.201   6.968
 9739OM     OM1 9739   7.100   0.218   1.366
 9740OM     OM1 9740   6.415   8.463   8.002
 9741OM     OM1 9741   4.582   9.482   2.531
 9742OM     OM1 9742   7.541   8.563   6.886
 9743OM     OM1 9743   7.766   8.431   6.891
 9744OM     OM1 9744   5.445   1.133   5.339
 9745OM     OM1 9745   5.274   0.958   5.425
 9746OM     OM1 9746   7.034   0.904   8.077
 9747OM     OM1 9747   6.786   1.015   8.105
 9748OM     OM1 9748   7.465   0.683   2.155
 9749OM     OM1 9749   7.133   8.559   8.845
 9750OM     OM1 9750   7.223   8.378   9.025
 9751OM     OM1 9751   0.063   1.168   2.635
 9752OM     OM1 9752   0.111   0.929   2.543
 9753OM     OM1 9753   9.470   1.005   2.559
 9754OM     OM1 9754   5.153   9.237   0.950
 9755OM     OM1 9755   5.759   1.092   5.640
 9756OM     OM1 9756   5.954   1.143   5.464
 9757OM     OM1 9757   5.028   0.663   3.503
 9758OM     OM1 9758   5.158   0.812   3.325
 9759OM     OM1 9759   6.724   9.381   3.176
 9760OM     OM1 9760   6.572   9.304   2.986
 9761OM     OM1 9761   9.106   8.744   1.879
 9762OM     OM1 9762   9.206   0.225   1.845
 9763OM     OM1 9763   9.024   0.206   2.036
 9764OM     OM1 9764   6.926   1.164   6.066
 9765OM     OM1 9765   6.839   1.388   6.175
 9766OM     OM1 9766   9.080   8.400   3.106
 9767OM     OM1 9767   0.619   1.026   5.062
 9768OM     OM1 9768   0.819   1.192   5.131
 9769OM     OM1 9769   6.122   0.732   5.353
 9770OM     OM1 9770   6.034   0.716   5.103
 9771OM     OM1 9771   1.146   1.121   2.375
 9772OM     OM1 9772   1.036   1.004   2.181
 9773OM     OM1 9773   1.429   8.633   7.760
 9774OM     OM1 9774   5.724   1.189   5.871
 9775OM     OM1 9775   6.976   0.254   4.185
 9776OM     OM1 9776   1.108   0.276   2.805
 9777OM     OM1 9777   1.463   0.077   2.708
 9778OM     OM1 9778   4.937   8.560   9.402
 9779OM     OM1 9779   5.067   8.775   9.480
 9780OM     OM1 9780   6.445   0.221   1.063
 9781OM     OM1 9781   2.326   8.510   0.699
 9782OM     OM1 9782   2.171   8.707   0.616
 9783OM     OM1 9783   0.101   9.361   7.002
 9784OM     OM1 9784   0.120   9.385   7.270
 9785OM     OM1 9785   0.289   9.244   7.134
 9786OM     OM1 9786   3.580   0.411   9.053
 9787OM     OM1 9787   6.361   0.086   6.770
 9788OM     OM1 9788   6.570   9.564   6.825
 9789OM     OM1 9789   2.704   0.723   7.256
 9790OM     OM1 9790   2.856   0.591   3.311
 9791OM     OM1 9791   2.808   0.747   3.521
 9792OM     OM1 9792   2.919   0.835   3.277
 9793OM     OM1 9793   9.001   8.961   1.971
 9794OM     OM1 9794   1.676   8.937   1.550
 9795OM     OM1 9795   1.518   8.738   1.647
 9796OM     OM1 9796   9.482   1.029   0.819
 9797OM     OM1 9797   9.453   1.224   1.005
 9798OM     OM1 9798   7.421   0.715   7.286
 9799OM     OM1 9799   7.478   0.494   7.164
 9800OM     OM1 9800   0.262   0.165   1.905
 9801OM     OM1 9801   0.310   0.092   1.654
 9802OM     OM1 9802   7.060   1.060   5.875
 9803OM     OM1 9803   7.142   1.034   6.129
 9804OM     OM1 9804   2.667   8.383   5.407
 9805OM     OM1 9805   3.842   9.396   1.905
 9806OM     OM1 9806   3.405   8.628   1.801
 9807OM     OM1 9807   5.026   8.528   6.989
 9808OM     OM1 9808   8.934   8.416   9.458
 9809OM     OM1 9809   7.263   9.398   7.560
 9810OM     OM1 9810   7.018   9.485   7.562
 9811OM     OM1 9811   8.001   0.907   1.796
 9812OM     OM1 9812   8.109   0.679   1.860
 9813OM     OM1 9813   2.129   9.418   5.782
 9814OM     OM1 9814   1.931   9.582   5.803
 9815OM     OM1 9815   1.897   9.349   5.696
 9816OM     OM1 9816   0.241   9.280   8.162
 9817OM     OM1 9817   0.344   0.576   4.620
 9818OM     OM1 9818   0.127   0.540   4.753
 9819OM     OM1 9819   2.907   0.831   7.370
 9820OM     OM1 9820   2.934   0.639   7.536
 9821OM     OM1 9821   6.737   9.045   1.674
 9822OM     OM1 9822   8.759   8.391   1.057
 9823OM     OM1 9823   8.940   8.219   1.117
 9824OM     OM1 9824   1.352   8.550   8.214
 9825OM     OM1 9825   7.532   1.109   2.125
 9826OM     OM1 9826   2.208   9.390   6.027
 9827OM     OM1 9827   8.356   8.393   2.955
 9828OM     OM1 9828   8.214   8.344   3.176
 9829OM     OM1 9829   2.133   9.187   7.505
 9830OM     OM1 9830   2.323   9.274   7.670
 9831OM     OM1 9831   1.173   0.402   4.166
 9832OM     OM1 9832   1.060   0.170   4.175
 9833OM     OM1 9833   0.986   0.351   4.004
 9834OM     OM1 9834   6.598   8.929   9.270
 9835OM     OM1 9835   0.955   8.450   0.271
 9836OM     OM1 9836   8.505   9.382   2.120
 9837OM     OM1 9837   8.362   9.401   1.893
 9838OM     OM1 9838   8.245   9.395   2.120
 9839OM     OM1 9839   7.014   9.349   1.036
 9840OM     OM1 9840   7.183   9.381   0.841
 9841OM     OM1 9841   1.575   0.420   8.499
 9842OM     OM1 9842   1.504   0.400   8.747
 9843OM     OM1 9843   2.975   8.502   7.334
 9844OM     OM1 9844   3.011   8.359   7.122
 9845OM     OM1 9845   3.194   0.021   1.876
 9846OM     OM1 9846   3.303   0.249   1.802
 9847OM     OM1 9847   3.233   0.056   1.623
 9848OM     OM1 9848   7.332   9.311   4.016
 9849OM     OM1 9849   0.624   0.507   5.475
 9850OM     OM1 9850   0.860   0.539   5.387
 9851OM     OM1 9851   8.566   0.933   9.547
 9852OM     OM1 9852   5.942   1.404   1.698
 9853OM     OM1 9853   6.160   1.277   1.678
 9854OM     OM1 9854   1.988   0.191   3.305
 9855OM     OM1 9855   3.850   8.591   8.929
 9856OM     OM1 9856   3.760   8.656   9.167
 9857OM     OM1 9857   1.051   0.135   7.138
 9858OM     OM1 9858   2.905   8.382   0.010
 9859OM     OM1 9859   3.052   8.310   0.219
 9860OM     OM1 9860   1.156   0.554   8.305
 9861OM     OM1 9861   0.927   0.669   8.327
 9862OM     OM1 9862   3.194   9.482   0.949
 9863OM     OM1 9863   2.976   9.344   0.964
 9864OM     OM1 9864   5.316   8.823   7.356
 9865OM     OM1 9865   1.668   0.788   3.720
 9866OM     OM1 9866   1.861   0.638   3.795
 9867OM     OM1 9867   4.468   0.799   1.681
 9868OM     OM1 9868   4.459   0.951   1.461
 9869OM     OM1 9869   4.252   0.903   1.606
 9870OM     OM1 9870   3.204   9.001   6.892
 9871OM     OM1 9871   4.245   0.638   0.265
 9872OM     OM1 9872   4.425   0.470   0.166
 9873OM     OM1 9873   6.016   8.590   4.029
 9874OM     OM1 9874   5.908   8.817   3.973
 9875OM     OM1 9875   7.634   8.537   8.655
 9876OM     OM1 9876   7.769   8.717   8.520
 9877OM     OM1 9877   7.985   1.117   1.638
 9878OM     OM1 9878   7.919   0.878   1.545
 9879OM     OM1 9879   4.553   0.438   8.280
 9880OM     OM1 9880   1.314   0.774   6.804
 9881OM     OM1 9881   1.215   0.550   6.885
 9882OM     OM1 9882   2.213   8.732   6.135
 9883OM     OM1 9883   2.322   8.933   6.261
 9884OM     OM1 9884   6.221   0.276   6.648
 9885OM     OM1 9885   0.439   0.897   9.336
 9886OM     OM1 9886   1.163   9.305   7.967
 9887OM     OM1 9887   4.932   0.242   2.209
 9888OM     OM1 9888   5.076   0.418   2.576
 9889OM     OM1 9889   5.041   0.203   2.454
 9890OM     OM1 9890   5.629   9.208   6.375
 9891OM     OM1 9891   5.854   9.239   6.509
 9892OM     OM1 9892   5.630   9.207   6.626
 9893OM     OM1 9893   4.086   0.528   0.687
 9894OM     OM1 9894   4.191   0.671   0.510
 9895OM     OM1 9895   2.901   9.250   2.476
 9896OM     OM1 9896   9.150   0.295   6.605
 9897OM     OM1 9897   4.064   0.000   0.184
 9898OM     OM1 9898   3.870   0.143   0.275
 9899OM     OM1 9899   6.774   1.279   3.195
 9900OM     OM1 9900   8.085   0.362   1.168
 9901OM     OM1 9901   7.862   0.497   1.205
 9902OM     OM1 9902   7.929   0.421   0.964
 9903OM     OM1 9903   3.034   1.282   3.732
 9904OM     OM1 9904   2.875   1.262   3.511
 9905OM     OM1 9905   2.819   1.134   3.730
 9906OM     OM1 9906   1.268   9.391   5.522
 9907OM     OM1 9907   1.095   9.578   5.455
 9908OM     OM1 9908   6.974   8.915   0.853
 9909OM     OM1 9909   6.810   8.906   0.658
 9910OM     OM1 9910   7.320   8.422   9.257
 9911OM     OM1 9911   3.055   8.763   9.394
 9912OM     OM1 9912   7.641   9.316   8.561
 9913OM     OM1 9913   6.957   0.990   3.669
 9914OM     OM1 9914   5.526   8.795   0.257
 9915OM     OM1 9915   5.785   8.809   0.226
 9916OM     OM1 9916   5.036   9.310   2.329
 9917OM     OM1 9917   2.715   0.673   5.009
 9918OM     OM1 9918   2.764   0.418   5.004
 9919OM     OM1 9919   3.995   8.566   6.588
 9920OM     OM1 9920   4.137   8.713   6.432
 9921OM     OM1 9921   7.115   8.758   4.809
 9922OM     OM1 9922   3.572   0.341   6.180
 9923OM     OM1 9923   3.372   0.321   6.660
 9924OM     OM1 9924   7.842   9.166   7.442
 9925OM     OM1 9925   7.852   9.148   7.715
 9926OM     OM1 9926   8.001   0.937   1.309
 9927OM     OM1 9927   2.682   8.302   9.502
 9928OM     OM1 9928   7.506   9.507   7.538
 9929OM     OM1 9929   4.679   9.192   2.812
 9930OM     OM1 9930   2.484   8.355   0.852
 9931OM     OM1 9931   8.703   9.387   4.981
 9932OM     OM1 9932   8.578   0.003   5.034
 9933OM     OM1 9933   4.352   1.115   4.841
 9934OM     OM1 9934   7.852   0.533   0.725
 9935OM     OM1 9935   3.560   8.805   9.256
 9936OM     OM1 9936   0.138   9.546   4.388
 9937OM     OM1 9937   9.589   9.382   4.265
 9938OM     OM1 9938   6.251   0.503   7.718
 9939OM     OM1 9939   8.161   8.556   7.819
 9940OM     OM1 9940   8.040   8.889   8.122
 9941OM     OM1 9941   3.972   0.138   7.168
 9942OM     OM1 9942   3.755   0.030   7.091
 9943OM     OM1 9943   1.344   8.682   0.627
 9944OM     OM1 9944   6.081   0.664   7.386
 9945OM     OM1 9945   1.810   0.515   4.885
 9946OM     OM1 9946   1.613   0.356   4.847
 9947OM     OM1 9947   8.751   0.852   2.592
 9948OM     OM1 9948   8.977   0.974   2.595
 9949OM     OM1 9949   8.542   1.130   6.711
 9950OM     OM1 9950   8.486   1.241   6.473
 9951OM     OM1 9951   4.698   9.206   3.776
 9952OM     OM1 9952   4.501   9.218   3.945
 9953OM     OM1 9953   4.683   9.029   3.965
 9954OM     OM1 9954   4.751   9.271   4.025
 9955OM     OM1 9955   5.481   8.910   5.636
 9956OM     OM1 9956   1.520   0.157   8.668
 9957OM     OM1 9957   9.063   0.138   9.303
 9958OM     OM1 9958   0.898   9.542   3.137
 9959OM     OM1 9959   8.981   9.120   8.940
 9960OM     OM1 9960   9.067   9.344   8.865
 9961OM     OM1 9961   4.918   0.843   1.011
 9962OM     OM1 9962   8.544   8.439   1.539
 9963OM     OM1 9963   8.669   8.397   1.310
 9964OM     OM1 9964   7.630   8.529   3.243
 9965OM     OM1 9965   4.529   1.090   5.220
 9966OM     OM1 9966   4.267   1.079   5.173
 9967OM     OM1 9967   6.468   8.951   4.310
 9968OM     OM1 9968   4.752   0.074   8.230
 9969OM     OM1 9969   4.955   0.095   8.072
 9970OM     OM1 9970   1.474   9.192   6.657
 9971OM     OM1 9971   6.195   1.237   4.453
 9972OM     OM1 9972   6.197   1.015   4.607
 9973OM     OM1 9973   0.158   0.901   4.258
 9974OM     OM1 9974   0.145   8.711   3.840
 9975OM     OM1 9975   0.173   8.949   3.784
 9976OM     OM1 9976   2.344   0.475   7.564
 9977OM     OM1 9977   7.999   8.604   8.502
 9978OM     OM1 9978   8.375   8.420   8.752
 9979OM     OM1 9979   3.360   0.704   5.746
 9980OM     OM1 9980   3.482   0.696   5.963
 9981OM     OM1 9981   3.525   0.247   3.275
 9982OM     OM1 9982   5.454   8.717   4.403
 9983OM     OM1 9983   1.027   8.902   5.078
 9984OM     OM1 9984   1.138   0.746   0.442
 9985OM     OM1 9985   1.319   0.886   0.324
 9986OM     OM1 9986   0.202   9.517   7.488
 9987OM     OM1 9987   0.078   0.337   0.657
 9988OM     OM1 9988   6.488   9.093   4.908
 9989OM     OM1 9989   6.433   9.200   4.676
 9990OM     OM1 9990   1.400   1.290   0.891
 9991OM     OM1 9991   0.778   1.342   6.100
 9992OM     OM1 9992   0.647   1.201   6.282
 9993OM     OM1 9993   3.754   1.179   9.353
 9994OM     OM1 9994   4.143   1.047   9.460
 9995OM     OM1 9995   4.010   1.253   9.381
 9996OM     OM1 9996   5.494   0.007   1.097
 9997OM     OM1 9997   8.697   8.559   7.138
 9998OM     OM1 9998   8.647   8.510   7.396
 9999OM     OM1 9999   8.726   0.275   7.259
10000OM     OM110000   8.778   0.456   7.432
10001OM     OM110001   8.956   0.380   7.252
10002OM     OM110002   1.153   8.681   4.299
10003OM     OM110003   1.331   8.781   4.165
10004OM     OM110004   1.380   8.559   4.301
10005OM     OM110005   2.155   9.592   6.196
10006OM     OM110006   1.960   0.118   6.284
10007OM     OM110007   5.593   0.362   5.727
10008OM     OM110008   6.542   1.066   6.008
10009OM     OM110009   3.800   8.855   9.321
10010OM     OM110010   2.052   0.258   1.952
10011OM     OM110011   2.285   0.280   1.844
10012OM     OM110012   8.075   8.235   4.448
10013OM     OM110013   0.781   9.211   8.314
10014OM     OM110014   0.721   9.109   8.083
10015OM     OM110015   8.042   8.776   4.203
10016OM     OM110016   6.863   0.463   0.566
10017OM     OM110017   6.969   0.224   0.616
10018OM     OM110018   1.947   0.496   4.669
10019OM     OM110019   1.895   0.354   4.455
10020OM     OM110020   2.036   0.245   4.649
10021OM     OM110021   2.228   1.083   1.532
10022OM     OM110022   8.343   8.882   8.751
10023OM     OM110023   8.444   8.662   8.812
10024OM     OM110024   8.102   8.906   8.809
10025OM     OM110025   1.440   9.169   2.477
10026OM     OM110026   1.469   0.180   0.305
10027OM     OM110027   4.313   0.308   3.023
10028OM     OM110028   4.374   0.363   3.271
10029OM     OM110029   9.319   8.733   7.879
10030OM     OM110030   6.948   1.342   2.629
10031OM     OM110031   7.463   8.621   9.359
10032OM     OM110032   7.517   8.554   0.108
10033OM     OM110033   0.471   1.267   2.372
10034OM     OM110034   6.444   1.343   4.055
10035OM     OM110035   6.607   1.266   4.244
10036OM     OM110036   6.368   1.357   4.298
10037OM     OM110037   0.790   8.768   6.113
10038OM     OM110038   0.771   8.697   6.364
10039OM     OM110039   6.750   0.127   5.322
10040OM     OM110040   0.715   9.096   6.299
10041OM     OM110041   0.913   9.482   7.759
10042OM     OM110042   6.107   8.543   0.829
10043OM     OM110043   6.084   8.438   1.068
10044OM     OM110044   2.294   8.915   0.705
10045OM     OM110045   2.429   9.016   0.908
10046OM     OM110046   4.038   8.470   4.764
10047OM     OM110047   3.878   8.372   4.938
10048OM     OM110048   1.503   1.290   9.137
10049OM     OM110049   1.912   8.432   1.842
10050OM     OM110050   2.086   8.602   1.947
10051OM     OM110051   2.973   0.712   3.052
10052OM     OM110052   8.234   0.458   1.821
10053OM     OM110053   7.443   8.203   0.445
10054OM     OM110054   2.154   0.490   2.665
10055OM     OM110055   6.673   8.593   8.858
10056OM     OM110056   7.451   0.644   8.024
10057OM     OM110057   0.240   0.642   8.022
10058OM     OM110058   0.274   0.387   8.049
10059OM     OM110059   8.652   0.347   4.008
10060OM     OM110060   8.663   0.405   3.746
10061OM     OM110061   8.837   0.244   3.867
10062OM     OM110062   3.088   0.591   1.288
10063OM     OM110063   0.070   8.470   8.071
10064OM     OM110064   0.188   8.664   8.318
10065OM     OM110065   5.057   0.395   7.562
10066OM     OM110066   4.889   0.546   7.675
10067OM     OM110067   2.383   8.561   3.449
10068OM     OM110068   2.950   8.472   3.311
10069OM     OM110069   2.923   8.371   3.566
10070OM     OM110070   1.437   9.563   8.530
10071OM     OM110071   1.281   9.037   4.642
10072OM     OM110072   6.791   0.950   0.950
10073OM     OM110073   6.530   0.939   0.974
10074OM     OM110074   5.260   8.795   0.675
10075OM     OM110075   5.153   8.349   0.804
10076OM     OM110076   8.146   1.118   2.731
10077OM     OM110077   4.963   0.643   5.150
10078OM     OM110078   5.184   0.522   5.068
10079OM     OM110079   5.177   0.591   5.310
10080OM     OM110080   1.214   8.341   7.307
10081OM     OM110081   1.393   8.482   7.564
10082OM     OM110082   2.170   1.113   0.127
10083OM     OM110083   5.156   8.297   6.973
10084OM     OM110084   4.923   8.541   7.343
10085OM     OM110085   0.955   8.319   1.361
10086OM     OM110086   1.027   8.239   1.124
10087OM     OM110087   8.563   1.198   4.900
10088OM     OM110088   5.031   9.187   1.164
10089OM     OM110089   3.473   0.677   5.053
10090OM     OM110090   6.154   0.375   6.428
10091OM     OM110091   7.807   9.190   5.074
10092OM     OM110092   7.764   9.434   4.966
10093OM     OM110093   6.088   8.922   3.824
10094OM     OM110094   5.827   9.002   3.826
10095OM     OM110095   1.949   9.212   0.699
10096OM     OM110096   1.775   9.194   0.893
10097OM     OM110097   5.386   8.739   7.119
10098OM     OM110098   3.602   0.424   7.630
10099OM     OM110099   3.733   0.467   7.394
10100OM     OM110100   3.483   0.441   7.399
10101OM     OM110101   5.392   0.326   4.679
10102OM     OM110102   1.638   9.437   1.912
10103OM     OM110103   1.573   9.471   1.674
10104OM     OM110104   3.918   1.237   2.525
10105OM     OM110105   1.034   8.454   5.338
10106OM     OM110106   3.389   8.986   5.238
10107OM     OM110107   3.619   9.445   8.131
10108OM     OM110108   2.136   0.634   5.030
10109OM     OM110109   1.987   0.701   4.835
10110OM     OM110110   2.993   8.896   8.682
10111OM     OM110111   2.989   8.649   8.739
10112OM     OM110112   1.437   8.865   2.134
10113OM     OM110113   1.428   8.617   2.196
10114OM     OM110114   3.833   8.580   3.431
10115OM     OM110115   8.768   0.363   7.678
10116OM     OM110116   8.653   0.590   7.629
10117OM     OM110117   1.547   0.663   1.129
10118OM     OM110118   1.370   0.568   0.964
10119OM     OM110119   5.337   1.088   2.269
10120OM     OM110120   3.420   0.461   3.158
10121OM     OM110121   8.380   1.242   3.259
10122OM     OM110122   2.320   9.012   7.307
10123OM     OM110123   7.540   9.239   1.845
10124OM     OM110124   3.194   8.279   4.682
10125OM     OM110125   2.095   0.308   2.204
10126OM     OM110126   2.090   0.506   2.037
10127OM     OM110127   7.658   0.248   2.611
10128OM     OM110128   0.661   0.528   3.530
10129OM     OM110129   8.680   0.738   7.841
10130OM     OM110130   8.820   0.931   7.966
10131OM     OM110131   7.192   8.931   4.459
10132OM     OM110132   2.575   0.038   8.381
10133OM     OM110133   2.781   9.536   8.287
10134OM     OM110134   2.539   9.518   8.161
10135OM     OM110135   2.667   0.120   8.134
10136OM     OM110136   2.529   9.558   0.789
10137OM     OM110137   2.956   9.154   8.715
10138OM     OM110138   1.247   0.336   0.988
10139OM     OM110139   7.929   0.993   2.828
10140OM     OM110140   9.508   8.292   1.675
10141OM     OM110141   8.509   8.363   7.584
10142OM     OM110142   8.152   0.150   7.482
10143OM     OM110143   5.858   8.398   6.492
10144OM     OM110144   8.713   8.464   6.503
10145OM     OM110145   0.807   1.088   1.306
10146OM     OM110146   0.775   1.202   1.060
10147OM     OM110147   0.671   0.973   1.117
10148OM     OM110148   7.272   1.313   6.542
10149OM     OM110149   7.154   1.196   6.338
10150OM     OM110150   8.975   0.166   9.548
10151OM     OM110151   8.833   0.041   9.352
10152OM     OM110152   8.842   0.273   4.821
10153OM     OM110153   3.949   1.010   1.253
10154OM     OM110154   4.154   1.011   1.394
10155OM     OM110155   8.593   9.343   1.215
10156OM     OM110156   8.265   9.156   1.288
10157OM     OM110157   2.639   0.663   1.118
10158OM     OM110158   3.305   1.219   3.775
10159OM     OM110159   1.116   8.441   0.984
10160OM     OM110160   0.897   0.112   5.556
10161OM     OM110161   0.891   0.699   0.483
10162OM     OM110162   0.662   0.820   0.509
10163OM     OM110163   6.365   9.269   0.279
10164OM     OM110164   6.374   9.143   0.496
10165OM     OM110165   7.838   8.260   4.346
10166OM     OM110166   4.792   0.991   3.101
10167OM     OM110167   1.067   9.400   2.293
10168OM     OM110168   0.169   9.279   1.924
10169OM     OM110169   0.147   9.074   2.097
10170OM     OM110170   1.430   0.851   3.660
10171OM     OM110171   3.221   0.596   3.042
10172OM     OM110172   2.775   0.661   9.420
10173OM     OM110173   3.017   0.616   9.296
10174OM     OM110174   6.012   8.923   0.257
10175OM     OM110175   5.080   9.285   3.189
10176OM     OM110176   5.132   9.140   2.974
10177OM     OM110177   1.459   8.960   4.811
10178OM     OM110178   4.903   9.161   3.620
10179OM     OM110179   5.051   9.265   3.445
10180OM     OM110180   5.160   9.171   3.665
10181OM     OM110181   8.539   0.517   7.848
10182OM     OM110182   8.451   0.734   7.724
10183OM     OM110183   0.177   9.543   1.975
10184OM     OM110184   0.392   0.043   2.099
10185OM     OM110185   7.335   1.234   5.206
10186OM     OM110186   7.589   8.997   1.939
10187OM     OM110187   6.523   8.741   3.266
10188OM     OM110188   6.717   8.883   3.162
10189OM     OM110189   6.662   8.746   9.082
10190OM     OM110190   1.769   8.641   5.650
10191OM     OM110191   1.931   8.819   5.555
10192OM     OM110192   4.563   9.144   9.572
10193OM     OM110193   4.404   8.960   0.028
10194OM     OM110194   4.627   1.077   8.671
10195OM     OM110195   4.793   1.281   8.537
10196OM     OM110196   0.047   8.659   2.375
10197OM     OM110197   0.193   8.486   2.247
10198OM     OM110198   2.124   0.719   6.143
10199OM     OM110199   5.543   1.247   7.112
10200OM     OM110200   2.909   8.894   1.985
10201OM     OM110201   4.294   9.300   1.067
10202OM     OM110202   4.272   9.060   1.171
10203OM     OM110203   6.292   9.546   5.733
10204OM     OM110204   7.331   0.216   1.991
10205OM     OM110205   3.700   0.564   5.893
10206OM     OM110206   9.296   0.240   0.342
10207OM     OM110207   9.139   0.259   0.124
10208OM     OM110208   9.354   0.083   0.147
10209OM     OM110209   1.005   9.461   8.750
10210OM     OM110210   1.264   9.459   8.691
10211OM     OM110211   9.201   8.790   1.452
10212OM     OM110212   9.429   8.878   1.339
10213OM     OM110213   1.102   8.258   7.527
10214OM     OM110214   0.520   8.973   2.356
10215OM     OM110215   0.645   8.876   2.577
10216OM     OM110216   0.817   0.732   6.519
10217OM     OM110217   0.496   0.345   7.917
10218OM     OM110218   2.794   0.237   4.805
10219OM     OM110219   2.725   0.165   5.044
10220OM     OM110220   4.019   1.023   5.630
10221OM     OM110221   4.124   1.138   5.842
10222OM     OM110222   3.966   1.278   5.687
10223OM     OM110223   0.222   0.952   2.029
10224OM     OM110224   9.565   0.028   4.558
10225OM     OM110225   3.557   8.928   7.815
10226OM     OM110226   3.532   8.858   7.568
10227OM     OM110227   3.343   8.796   7.738
10228OM     OM110228   2.358   9.001   3.537
10229OM     OM110229   0.441   8.490   2.307
10230OM     OM110230   9.518   8.451   4.364
10231OM     OM110231   1.353   8.680   8.439
10232OM     OM110232   2.372   9.023   4.080
10233OM     OM110233   2.571   9.153   3.977
10234OM     OM110234   1.871   0.025   8.897
10235OM     OM110235   1.658   0.063   9.039
10236OM     OM110236   6.265   0.559   6.955
10237OM     OM110237   6.219   0.503   7.204
10238OM     OM110238   0.478   8.360   4.820
10239OM     OM110239   0.402   8.403   5.056
10240OM     OM110240   9.354   9.025   7.102
10241OM     OM110241   9.297   8.817   7.251
10242OM     OM110242   7.819   9.577   3.923
10243OM     OM110243   7.794   9.381   4.098
10244OM     OM110244   8.584   0.438   3.004
10245OM     OM110245   4.142   9.318   2.686
10246OM     OM110246   7.837   9.347   7.873
10247OM     OM110247   3.196   9.007   6.378
10248OM     OM110248   4.710   9.220   6.310
10249OM     OM110249   4.882   9.157   6.104
10250OM     OM110250   3.963   0.690   0.850
10251OM     OM110251   7.406   9.540   4.133
10252OM     OM110252   7.546   9.319   4.156
10253OM     OM110253   1.520   9.000   4.027
10254OM     OM110254   1.642   9.145   4.200
10255OM     OM110255   1.252   8.952   1.962
10256OM     OM110256   5.974   0.623   2.922
10257OM     OM110257   6.128   0.413   2.958
10258OM     OM110258   8.751   8.607   0.760
10259OM     OM110259   8.353   8.591   0.604
10260OM     OM110260   4.819   9.289   8.214
10261OM     OM110261   4.639   9.354   8.406
10262OM     OM110262   9.540   0.845   0.629
10263OM     OM110263   8.289   0.457   2.383
10264OM     OM110264   8.045   0.510   2.481
10265OM     OM110265   4.243   8.649   7.766
10266OM     OM110266   1.937   0.332   3.519
10267OM     OM110267   1.976   0.423   3.762
10268OM     OM110268   6.262   8.812   4.380
10269OM     OM110269   6.329   9.026   4.513
10270OM     OM110270   4.138   1.269   2.634
10271OM     OM110271   4.102   1.011   2.652
10272OM     OM110272   8.086   8.861   9.070
10273OM     OM110273   7.737   8.969   9.182
10274OM     OM110274   8.023   1.221   5.286
10275OM     OM110275   8.276   0.842   5.295
10276OM     OM110276   2.120   8.393   2.773
10277OM     OM110277   2.332   0.627   2.541
10278OM     OM110278   2.212   0.423   2.412
10279OM     OM110279   3.209   9.530   8.341
10280OM     OM110280   3.132   9.584   8.578
10281OM     OM110281   4.416   9.158   8.790
10282OM     OM110282   9.457   8.628   5.627
10283OM     OM110283   9.545   8.863   5.567
10284OM     OM110284   2.440   0.917   6.768
10285OM     OM110285   1.405   0.845   3.401
10286OM     OM110286   0.800   8.366   3.442
10287OM     OM110287   0.578   9.125   6.074
10288OM     OM110288   4.336   8.988   3.587
10289OM     OM110289   5.789   9.124   2.640
10290OM     OM110290   5.751   8.747   2.982
10291OM     OM110291   1.464   8.556   8.733
10292OM     OM110292   9.533   0.543   5.987
10293OM     OM110293   8.941   9.258   4.725
10294OM     OM110294   8.740   9.161   4.859
10295OM     OM110295   1.492   0.108   4.661
10296OM     OM110296   1.683   1.302   8.943
10297OM     OM110297   3.082   9.281   8.918
10298OM     OM110298   2.994   9.416   8.717
10299OM     OM110299   8.042   8.948   4.610
10300OM     OM110300   2.503   9.446   4.779
10301OM     OM110301   2.635   9.239   4.871
10302OM     OM110302   2.717   9.601   4.762
10303OM     OM110303   0.878   8.561   1.293
10304OM     OM110304   1.553   9.373   2.886
10305OM     OM110305   0.746   9.476   0.480
10306OM     OM110306   5.414   1.288   2.130
10307OM     OM110307   5.201   1.335   1.998
10308OM     OM110308   2.045   0.733   5.582
10309OM     OM110309   2.878   9.542   8.529
10310OM     OM110310   2.990   9.390   8.360
10311OM     OM110311   0.644   0.943   7.108
10312OM     OM110312   0.638   1.204   7.020
10313OM     OM110313   7.665   0.036   7.080
10314OM     OM110314   9.419   1.264   2.031
10315OM     OM110315   5.758   0.866   6.774
10316OM     OM110316   5.890   0.928   6.578
10317OM     OM110317   7.018   1.087   5.607
10318OM     OM110318   4.386   0.555   8.669
10319OM     OM110319   4.255   0.760   8.595
10320OM     OM110320   4.195   0.530   8.495
10321OM     OM110321   4.805   0.548   3.588
10322OM     OM110322   4.839   0.629   3.337
10323OM     OM110323   4.663   9.157   8.837
10324OM     OM110324   1.409   0.514   8.321
10325OM     OM110325   1.364   9.138   3.861
10326OM     OM110326   1.302   8.905   3.942
10327OM     OM110327   0.063   9.084   5.606
10328OM     OM110328   4.531   9.006   2.674
10329OM     OM110329   2.585   8.146   4.172
10330OM     OM110330   4.106   1.278   3.643
10331OM     OM110331   3.747   9.537   4.061
10332OM     OM110332   3.970   0.049   4.129
10333OM     OM110333   2.278   8.938   2.514
10334OM     OM110334   8.813   0.537   6.521
10335OM     OM110335   9.019   0.411   6.422
10336OM     OM110336   0.682   0.557   8.363
10337OM     OM110337   0.651   1.032   8.655
10338OM     OM110338   0.451   0.952   8.795
10339OM     OM110339   8.931   0.371   8.926
10340OM     OM110340   8.697   0.495   8.943
10341OM     OM110341   2.116   8.875   7.391
10342OM     OM110342   0.450   0.849   0.660
10343OM     OM110343   0.439   0.717   0.435
10344OM     OM110344   8.847   8.919   8.210
10345OM     OM110345   9.032   9.099   8.186
10346OM     OM110346   7.974   0.742   0.652
10347OM     OM110347   4.097   8.815   7.621
10348OM     OM110348   2.088   0.496   7.570
10349OM     OM110349   7.941   8.821   8.354
10350OM     OM110350   6.028   0.849   4.503
10351OM     OM110351   4.535   9.558   8.311
10352OM     OM110352   4.525   0.189   8.224
10353OM     OM110353   4.578   9.601   8.051
10354OM     OM110354   1.730   0.038   7.238
10355OM     OM110355   1.502   1.250   4.782
10356OM     OM110356   2.950   8.410   8.598
10357OM     OM110357   0.887   8.336   0.924
10358OM     OM110358   5.067   8.688   1.490
10359OM     OM110359   4.858   8.533   1.459
10360OM     OM110360   3.437   8.762   0.426
10361OM     OM110361   3.397   8.931   0.634
10362OM     OM110362   3.487   9.007   0.389
10363OM     OM110363   5.521   0.656   6.722
10364OM     OM110364   5.304   0.760   6.632
10365OM     OM110365   5.388   0.827   6.867
10366OM     OM110366   3.211   0.649   5.315
10367OM     OM110367   3.046   0.775   5.474
10368OM     OM110368   4.311   8.826   3.035
10369OM     OM110369   4.130   8.647   3.054
10370OM     OM110370   5.345   8.552   6.910
10371OM     OM110371   5.506   8.505   7.110
10372OM     OM110372   0.962   0.358   2.364
10373OM     OM110373   0.824   0.510   2.530
10374OM     OM110374   0.722   0.287   2.441
10375OM     OM110375   0.927   0.283   2.610
10376OM     OM110376   0.020   8.563   2.947
10377OM     OM110377   5.299   0.324   7.810
10378OM     OM110378   0.647   9.056   7.596
10379OM     OM110379   0.800   9.268   7.633
10380OM     OM110380   0.550   9.293   7.682
10381OM     OM110381   6.378   9.057   0.734
10382OM     OM110382   6.590   9.030   0.589
10383OM     OM110383   6.661   0.239   5.948
10384OM     OM110384   4.315   9.511   1.214
10385OM     OM110385   2.738   8.338   4.229
10386OM     OM110386   2.801   8.558   4.098
10387OM     OM110387   5.503   0.552   7.243
10388OM     OM110388   5.536   0.726   7.049
10389OM     OM110389   2.949   0.016   2.860
10390OM     OM110390   3.072   0.219   2.777
10391OM     OM110391   5.347   9.355   3.656
10392OM     OM110392   1.688   9.234   5.591
10393OM     OM110393   1.869   9.063   5.572
10394OM     OM110394   1.627   9.007   5.481
10395OM     OM110395   6.411   9.345   5.861
10396OM     OM110396   4.113   0.334   2.853
10397OM     OM110397   4.793   8.126   9.297
10398OM     OM110398   2.762   9.173   6.180
10399OM     OM110399   1.565   0.454   6.175
10400OM     OM110400   4.636   8.632   6.280
10401OM     OM110401   6.437   0.154   2.538
10402OM     OM110402   0.505   8.735   2.296
10403OM     OM110403   6.109   8.953   5.995
10404OM     OM110404   5.930   8.927   5.810
10405OM     OM110405   0.356   0.761   7.332
10406OM     OM110406   0.517   0.560   7.396
10407OM     OM110407   7.285   0.934   7.254
10408OM     OM110408   7.900   8.598   4.327
10409OM     OM110409   5.431   8.428   6.248
10410OM     OM110410   3.985   0.809   1.085
10411OM     OM110411   4.084   8.545   0.572
10412OM     OM110412   3.523   0.662   4.066
10413OM     OM110413   3.208   1.283   3.554
10414OM     OM110414   3.152   1.297   3.315
10415OM     OM110415   3.870   1.036   1.020
10416OM     OM110416   1.558   8.630   6.348
10417OM     OM110417   1.364   8.628   6.530
10418OM     OM110418   3.981   0.794   2.547
10419OM     OM110419   7.874   8.553   4.584
10420OM     OM110420   7.872   8.803   4.483
10421OM     OM110421   3.262   9.202   4.437
10422OM     OM110422   4.868   0.835   6.429
10423OM     OM110423   0.668   0.736   6.981
10424OM     OM110424   2.239   8.518   9.074
10425OM     OM110425   4.985   8.409   3.693
10426OM     OM110426   2.876   0.284   5.766
10427OM     OM110427   1.200   8.493   8.664
10428OM     OM110428   3.471   0.161   1.134
10429OM     OM110429   3.452   9.526   1.026
10430OM     OM110430   9.258   9.116   8.325
10431OM     OM110431   9.263   9.033   8.076
10432OM     OM110432   3.090   1.009   6.615
10433OM     OM110433   8.230   8.276   0.740
10434OM     OM110434   5.361   0.198   3.875
10435OM     OM110435   6.326   8.565   3.279
10436OM     OM110436   6.185   8.535   3.481
10437OM     OM110437   8.504   1.302   5.913
10438OM     OM110438   8.409   1.059   5.875
10439OM     OM110439   8.268   1.237   6.005
10440OM     OM110440   8.319   1.264   5.739
10441OM     OM110441   5.913   8.369   7.978
10442OM     OM110442   5.716   8.444   8.153
10443OM     OM110443   3.927   0.858   6.467
10444OM     OM110444   2.327   9.094   2.715
10445OM     OM110445   2.501   9.195   2.876
10446OM     OM110446   7.670   0.855   9.398
10447OM     OM110447   2.202   9.316   1.571
10448OM     OM110448   1.038   8.610   2.751
10449OM     OM110449   3.483   0.885   0.020
10450OM     OM110450   3.544   1.037   9.415
10451OM     OM110451   6.851   0.490   4.715
10452OM     OM110452   7.089   0.586   4.806
10453OM     OM110453   7.004   0.607   4.554
10454OM     OM110454   6.773   0.348   3.261
10455OM     OM110455   6.632   0.129   3.317
10456OM     OM110456   0.474   0.211   8.134
10457OM     OM110457   2.154   8.381   6.528
10458OM     OM110458   5.471   0.148   2.740
10459OM     OM110459   5.318   9.394   2.780
10460OM     OM110460   4.214   0.593   1.749
10461OM     OM110461   8.191   8.472   6.413
10462OM     OM110462   8.450   8.432   6.463
10463OM     OM110463   6.308   1.354   3.824
10464OM     OM110464   3.069   0.630   1.739
10465OM     OM110465   4.270   9.102   1.559
10466OM     OM110466   2.861   8.737   6.352
10467OM     OM110467   2.902   8.622   6.582
10468OM     OM110468   8.447   0.896   5.678
10469OM     OM110469   2.864   0.140   3.834
10470OM     OM110470   1.559   8.604   7.046
10471OM     OM110471   4.769   0.512   2.621
10472OM     OM110472   4.526   0.452   2.659
10473OM     OM110473   7.672   8.820   0.941
10474OM     OM110474   7.878   8.800   1.100
10475OM     OM110475   0.942   1.331   4.295
10476OM     OM110476   3.534   0.333   2.483
10477OM     OM110477   4.410   0.995   1.841
10478OM     OM110478   8.812   0.245   5.303
10479OM     OM110479   5.574   8.571   0.376
10480OM     OM110480   5.212   9.402   0.223
10481OM     OM110481   5.295   9.156   0.298
10482OM     OM110482   6.229   9.481   8.365
10483OM     OM110483   2.820   0.235   0.048
10484OM     OM110484   8.522   9.411   8.002
10485OM     OM110485   7.352   0.796   7.045
10486OM     OM110486   1.485   0.362   4.622
10487OM     OM110487   5.192   8.704   4.836
10488OM     OM110488   5.260   8.512   5.009
10489OM     OM110489   5.850   9.223   2.134
10490OM     OM110490   5.979   9.218   1.908
10491OM     OM110491   7.821   1.105   4.424
10492OM     OM110492   7.360   1.039   6.303
10493OM     OM110493   0.560   9.286   4.338
10494OM     OM110494   8.056   9.218   2.199
10495OM     OM110495   7.334   1.167   3.867
10496OM     OM110496   8.965   0.449   1.999
10497OM     OM110497   7.273   0.780   2.006
10498OM     OM110498   2.762   0.013   0.141
10499OM     OM110499   3.534   0.055   1.361
10500OM     OM110500   0.582   8.293   3.341
10501OM     OM110501   8.874   0.232   0.179
10502OM     OM110502   9.101   0.938   2.227
10503OM     OM110503   8.906   0.753   2.178
10504OM     OM110504   4.552   0.463   5.263
10505OM     OM110505   9.062   0.748   2.686
10506OM     OM110506   9.230   0.903   2.581
10507OM     OM110507   4.762   0.738   3.102
10508OM     OM110508   7.875   1.163   4.996
10509OM     OM110509   1.714   0.089   6.253
10510OM     OM110510   1.874   0.091   6.037
10511OM     OM110511   1.871   9.490   6.198
10512OM     OM110512   4.040   0.782   2.108
10513OM     OM110513   3.179   1.109   3.125
10514OM     OM110514   3.120   1.088   2.854
10515OM     OM110515   6.298   1.106   2.759
10516OM     OM110516   6.560   1.063   2.818
10517OM     OM110517   6.365   0.964   7.928
10518OM     OM110518   6.729   0.725   7.760
10519OM     OM110519   6.716   9.115   0.795
10520OM     OM110520   1.235   8.877   4.921
10521OM     OM110521   7.555   9.036   0.501
10522OM     OM110522   2.573   8.999   6.239
10523OM     OM110523   2.813   8.919   6.182
10524OM     OM110524   2.131   9.526   1.421
10525OM     OM110525   2.376   9.436   1.422
10526OM     OM110526   1.701   9.033   7.036
10527OM     OM110527   0.718   0.716   2.407
10528OM     OM110528   4.424   0.438   9.149
10529OM     OM110529   6.412   9.515   8.544
10530OM     OM110530   3.026   8.855   5.032
10531OM     OM110531   4.282   0.865   0.372
10532OM     OM110532   4.437   1.058   0.316
10533OM     OM110533   5.024   1.060   8.539
10534OM     OM110534   8.004   8.780   5.091
10535OM     OM110535   8.157   8.789   5.307
10536OM     OM110536   4.195   8.488   9.379
10537OM     OM110537   4.668   8.679   1.544
10538OM     OM110538   7.309   8.640   6.819
10539OM     OM110539   6.125   9.081   0.810
10540OM     OM110540   6.595   1.006   4.266
10541OM     OM110541   1.795   9.272   2.875
10542OM     OM110542   1.740   9.427   3.071
10543OM     OM110543   3.335   0.780   8.673
10544OM     OM110544   6.761   1.214   2.756
10545OM     OM110545   7.378   8.403   0.269
10546OM     OM110546   3.797   8.963   1.750
10547OM     OM110547   3.767   8.976   2.014
10548OM     OM110548   8.723   0.623   2.051
10549OM     OM110549   8.021   8.414   6.222
10550OM     OM110550   9.005   1.265   8.921
10551OM     OM110551   9.204   1.291   9.107
10552OM     OM110552   9.008   1.122   9.137
10553OM     OM110553   6.225   0.392   4.125
10554OM     OM110554   5.152   8.531   3.129
10555OM     OM110555   5.360   8.403   3.135
10556OM     OM110556   7.371   1.141   0.858
10557OM     OM110557   7.524   0.938   0.794
10558OM     OM110558   7.409   1.077   0.608
10559OM     OM110559   0.385   9.503   7.671
10560OM     OM110560   1.555   8.300   0.159
10561OM     OM110561   1.702   8.349   0.366
10562OM     OM110562   4.486   9.119   4.375
10563OM     OM110563   4.705   8.988   4.423
10564OM     OM110564   4.711   9.203   4.270
10565OM     OM110565   4.675   0.253   2.200
10566OM     OM110566   1.992   8.892   8.398
10567OM     OM110567   3.205   1.219   2.507
10568OM     OM110568   2.493   9.061   3.750
10569OM     OM110569   4.094   8.340   6.653
10570OM     OM110570   3.832   8.350   6.606
10571OM     OM110571   9.475   9.305   4.046
10572OM     OM110572   4.990   1.201   8.769
10573OM     OM110573   9.435   8.813   2.372
10574OM     OM110574   9.279   1.045   2.380
10575OM     OM110575   5.751   9.185   6.996
10576OM     OM110576   5.659   9.367   6.836
10577OM     OM110577   5.847   9.423   7.014
10578OM     OM110578   0.163   0.179   4.507
10579OM     OM110579   0.720   1.177   7.804
10580OM     OM110580   0.598   0.949   7.875
10581OM     OM110581   2.385   1.262   5.985
10582OM     OM110582   2.191   1.321   5.831
10583OM     OM110583   9.216   1.178   2.165
10584OM     OM110584   9.603   0.575   0.575
10585OM     OM110585   0.096   0.777   0.441
10586OM     OM110586   6.146   1.013   6.606
10587OM     OM110587   0.534   1.341   8.914
10588OM     OM110588   6.097   8.645   4.264
10589OM     OM110589   8.454   0.062   6.605
10590OM     OM110590   9.278   0.767   5.274
10591OM     OM110591   6.031   1.092   2.731
10592OM     OM110592   6.410   1.294   1.319
10593OM     OM110593   6.367   1.384   1.565
10594OM     OM110594   3.181   9.588   2.977
10595OM     OM110595   7.148   9.238   0.622
10596OM     OM110596   3.199   8.823   5.213
10597OM     OM110597   7.695   0.989   5.094
10598OM     OM110598   8.652   0.289   5.501
10599OM     OM110599   2.558   8.650   4.699
10600OM     OM110600   9.051   0.170   0.754
10601OM     OM110601   9.213   9.582   0.730
10602OM     OM110602   2.231   0.948   7.561
10603OM     OM110603   2.895   8.526   3.057
10604OM     OM110604   3.031   8.700   3.211
10605OM     OM110605   1.279   9.072   6.763
10606OM     OM110606   9.052   0.883   5.859
10607OM     OM110607   5.607   8.372   8.372
10608OM     OM110608   5.633   8.722   2.590
10609OM     OM110609   5.402   8.696   2.700
10610OM     OM110610   5.769   1.042   2.761
10611OM     OM110611   5.866   1.190   2.559
10612OM     OM110612   0.039   0.954   0.264
10613OM     OM110613   0.281   0.854   0.286
10614OM     OM110614   6.276   0.200   3.023
10615OM     OM110615   8.276   9.334   5.513
10616OM     OM110616   4.880   9.068   8.929
10617OM     OM110617   6.821   0.535   6.455
10618OM     OM110618   6.721   0.766   6.478
10619OM     OM110619   9.346   9.329   8.440
10620OM     OM110620   3.931   0.056   5.565
10621OM     OM110621   4.057   0.266   5.673
10622OM     OM110622   6.343   1.063   6.162
10623OM     OM110623   6.959   8.945   3.238
10624OM     OM110624   6.761   8.961   3.404
10625OM     OM110625   7.025   8.574   5.544
10626OM     OM110626   7.114   8.195   5.698
10627OM     OM110627   0.549   0.887   0.902
10628OM     OM110628   1.411   0.621   1.346
10629OM     OM110629   1.410   0.971   1.719
10630OM     OM110630   1.542   0.757   1.772
10631OM     OM110631   0.279   9.511   4.899
10632OM     OM110632   3.144   1.270   6.638
10633OM     OM110633   7.905   0.195   7.507
10634OM     OM110634   0.332   1.004   0.805
10635OM     OM110635   7.010   8.769   4.573
10636OM     OM110636   6.945   8.919   4.380
10637OM     OM110637   6.036   0.306   4.783
10638OM     OM110638   0.441   8.860   3.240
10639OM     OM110639   5.363   0.092   7.758
10640OM     OM110640   5.459   9.524   7.591
10641OM     OM110641   5.586   9.556   7.818
10642OM     OM110642   5.359   9.449   7.822
10643OM     OM110643   3.980   0.842   9.437
10644OM     OM110644   2.717   0.897   3.714
10645OM     OM110645   7.515   9.060   9.085
10646OM     OM110646   7.336   9.060   8.881
10647OM     OM110647   6.762   9.131   3.215
10648OM     OM110648   0.371   0.843   3.027
10649OM     OM110649   2.147   8.554   2.570
10650OM     OM110650   7.985   9.319   3.475
10651OM     OM110651   2.258   0.329   8.679
10652OM     OM110652   2.050   0.218   8.539
10653OM     OM110653   8.338   8.588   1.604
10654OM     OM110654   3.112   8.957   3.200
10655OM     OM110655   4.943   8.769   5.207
10656OM     OM110656   4.818   8.580   5.088
10657OM     OM110657   4.964   8.763   4.947
10658OM     OM110658   7.121   8.472   6.767
10659OM     OM110659   4.698   8.764   3.357
10660OM     OM110660   0.903   8.990   7.943
10661OM     OM110661   0.710   9.146   7.830
10662OM     OM110662   6.312   1.079   6.435
10663OM     OM110663   4.365   0.741   1.908
10664OM     OM110664   4.587   9.227   2.569
10665OM     OM110665   2.425   9.089   6.064
10666OM     OM110666   1.310   8.735   7.541
10667OM     OM110667   5.734   8.867   5.659
10668OM     OM110668   4.908   0.437   5.655
10669OM     OM110669   8.634   0.944   5.114
10670OM     OM110670   8.752   1.182   5.067
10671OM     OM110671   8.619   1.170   5.274
10672OM     OM110672   3.181   0.428   1.142
10673OM     OM110673   7.155   9.235   9.538
10674OM     OM110674   1.026   8.486   4.138
10675OM     OM110675   3.294   8.775   6.321
10676OM     OM110676   3.747   0.128   2.136
10677OM     OM110677   1.159   8.768   6.642
10678OM     OM110678   8.111   1.098   7.221
10679OM     OM110679   7.975   1.072   7.442
10680OM     OM110680   5.350   0.456   5.463
10681OM     OM110681   5.510   9.446   6.628
10682OM     OM110682   8.537   9.079   1.264
10683OM     OM110683   1.860   0.472   4.225
10684OM     OM110684   7.148   8.697   2.936
10685OM     OM110685   5.385   1.194   6.916
10686OM     OM110686   5.377   1.303   6.682
10687OM     OM110687   9.404   8.667   7.636
10688OM     OM110688   4.659   1.014   7.982
10689OM     OM110689   4.566   0.775   7.870
10690OM     OM110690   4.652   0.964   7.730
10691OM     OM110691   6.187   0.238   0.994
10692OM     OM110692   6.457   9.000   7.186
10693OM     OM110693   6.646   8.994   7.354
10694OM     OM110694   5.314   8.326   6.035
10695OM     OM110695   4.991   0.538   0.189
10696OM     OM110696   4.473   0.084   1.307
10697OM     OM110697   2.480   0.176   5.452
10698OM     OM110698   5.287   9.329   3.030
10699OM     OM110699   1.380   0.311   7.397
10700OM     OM110700   1.510   0.090   7.350
10701OM     OM110701   4.455   8.327   8.580
10702OM     OM110702   7.719   9.428   7.658
10703OM     OM110703   4.559   8.824   3.133
10704OM     OM110704   0.479   9.520   1.597
10705OM     OM110705   5.327   1.382   0.792
10706OM     OM110706   1.688   0.048   3.168
10707OM     OM110707   6.177   9.532   2.167
10708OM     OM110708   6.132   0.137   2.029
10709OM     OM110709   8.404   8.931   6.073
10710OM     OM110710   3.395   1.076   7.445
10711OM     OM110711   3.368   1.335   7.423
10712OM     OM110712   0.116   9.590   8.783
10713OM     OM110713   0.004   9.515   8.559
10714OM     OM110714   1.113   0.914   1.956
10715OM     OM110715   1.188   0.668   2.041
10716OM     OM110716   7.911   9.108   3.625
10717OM     OM110717   8.572   9.237   3.603
10718OM     OM110718   3.533   8.719   1.308
10719OM     OM110719   1.110   0.380   7.051
10720OM     OM110720   4.498   9.327   2.332
10721OM     OM110721   7.598   0.285   7.084
10722OM     OM110722   4.019   0.669   5.436
10723OM     OM110723   4.099   0.520   5.643
10724OM     OM110724   2.122   8.939   2.729
10725OM     OM110725   2.007   9.168   2.772
10726OM     OM110726   8.435   9.299   9.405
10727OM     OM110727   6.589   0.515   9.053
10728OM     OM110728   6.265   0.494   8.820
10729OM     OM110729   3.342   0.483   4.027
10730OM     OM110730   3.017   9.165   3.085
10731OM     OM110731   1.156   0.852   5.551
10732OM     OM110732   2.069   9.097   7.275
10733OM     OM110733   7.906   0.962   9.407
10734OM     OM110734   7.981   0.752   9.545
10735OM     OM110735   0.525   9.318   7.228
10736OM     OM110736   4.725   8.391   0.791
10737OM     OM110737   2.210   0.817   2.422
10738OM     OM110738   2.288   0.663   1.963
10739OM     OM110739   2.387   9.542   8.536
10740OM     OM110740   2.170   8.679   5.876
10741OM     OM110741   3.071   8.799   6.477
10742OM     OM110742   9.068   1.060   5.659
10743OM     OM110743   8.857   1.175   5.563
10744OM     OM110744   6.515   1.021   3.538
10745OM     OM110745   7.737   9.601   7.468
10746OM     OM110746   7.710   0.183   7.301
10747OM     OM110747   7.014   1.213   7.064
10748OM     OM110748   2.950   0.072   8.744
10749OM     OM110749   5.433   9.535   2.964
10750OM     OM110750   5.689   9.394   4.640
10751OM     OM110751   8.839   0.291   8.225
10752OM     OM110752   5.526   1.063   3.505
10753OM     OM110753   9.570   8.963   1.124
10754OM     OM110754   9.569   9.189   1.018
10755OM     OM110755   7.174   0.998   7.893
10756OM     OM110756   2.877   1.219   8.151
10757OM     OM110757   2.633   1.142   8.199
10758OM     OM110758   5.140   1.202   4.255
10759OM     OM110759   7.375   8.497   3.162
10760OM     OM110760   5.006   0.719   6.234
10761OM     OM110761   5.948   9.375   4.529
10762OM     OM110762   8.213   8.910   2.166
10763OM     OM110763   3.920   0.435   5.815
10764OM     OM110764   0.562   8.432   9.604
10765OM     OM110765   0.607   8.684   0.086
10766OM     OM110766   0.698   8.468   0.216
10767OM     OM110767   3.370   0.263   0.369
10768OM     OM110768   6.530   0.938   8.127
10769OM     OM110769   3.560   0.363   0.519
10770OM     OM110770   5.030   8.754   5.453
10771OM     OM110771   7.228   0.437   1.329
10772OM     OM110772   2.294   0.516   4.869
10773OM     OM110773   0.111   0.814   7.380
10774OM     OM110774   9.057   0.956   7.272
10775OM     OM110775   2.941   0.416   1.538
10776OM     OM110776   4.478   1.144   7.624
10777OM     OM110777   4.695   1.076   7.498
10778OM     OM110778   6.616   9.368   8.621
10779OM     OM110779   6.304   8.956   6.160
10780OM     OM110780   6.389   9.190   6.083
10781OM     OM110781   0.164   0.689   2.653
10782OM     OM110782   0.144   9.218   5.814
10783OM     OM110783   0.254   8.989   5.763
10784OM     OM110784   8.737   1.173   6.884
10785OM     OM110785   5.776   0.969   3.480
10786OM     OM110786   5.697   1.207   3.390
10787OM     OM110787   0.158   9.477   5.791
10788OM     OM110788   3.899   0.553   7.206
10789OM     OM110789   0.485   8.961   5.882
10790OM     OM110790   9.582   1.360   0.768
10791OM     OM110791   4.337   9.197   3.746
10792OM     OM110792   5.588   0.582   5.854
10793OM     OM110793   5.480   0.613   6.081
10794OM     OM110794   6.028   0.418   7.346
10795OM     OM110795   1.368   1.296   7.100
10796OM     OM110796   1.741   0.333   6.317
10797OM     OM110797   2.246   9.346   0.301
10798OM     OM110798   2.109   9.348   0.538
10799OM     OM110799   7.388   0.217   6.215
10800OM     OM110800   0.458   8.630   2.530
10801OM     OM110801   0.354   8.472   2.702
10802OM     OM110802   2.872   8.309   5.555
10803OM     OM110803   4.099   0.074   9.234
10804OM     OM110804   0.331   1.101   9.475
10805OM     OM110805   9.200   9.551   5.599
10806OM     OM110806   9.340   0.865   4.635
10807OM     OM110807   7.095   8.818   5.496
10808OM     OM110808   4.777   8.434   6.381
10809OM     OM110809   7.399   8.827   0.503
10810OM     OM110810   7.560   8.875   0.704
10811OM     OM110811   1.333   0.998   2.625
10812OM     OM110812   0.887   8.805   2.662
10813OM     OM110813   0.947   8.545   5.571
10814OM     OM110814   6.150   8.472   7.953
10815OM     OM110815   8.280   8.372   0.502
10816OM     OM110816   1.336   8.725   3.315
10817OM     OM110817   8.269   8.766   2.634
10818OM     OM110818   8.194   8.796   2.395
10819OM     OM110819   8.154   8.730   6.685
10820OM     OM110820   1.132   8.712   8.560
10821OM     OM110821   2.030   8.212   8.703
10822OM     OM110822   2.129   8.404   8.865
10823OM     OM110823   6.554   0.725   3.943
10824OM     OM110824   6.551   0.808   3.685
10825OM     OM110825   5.374   8.721   0.456
10826OM     OM110826   4.664   0.807   0.943
10827OM     OM110827   0.714   8.540   5.698
10828OM     OM110828   3.128   8.311   5.526
10829OM     OM110829   4.148   1.172   7.107
10830OM     OM110830   8.159   9.602   2.776
10831OM     OM110831   8.546   8.669   6.465
10832OM     OM110832   5.938   0.866   3.655
10833OM     OM110833   8.058   1.032   4.360
10834OM     OM110834   3.755   8.713   5.823
10835OM     OM110835   3.838   8.959   5.809
10836OM     OM110836   6.070   8.503   3.254
10837OM     OM110837   5.820   8.529   3.180
10838OM     OM110838   4.692   8.565   9.520
10839OM     OM110839   4.617   8.916   9.506
10840OM     OM110840   8.350   1.182   8.635
10841OM     OM110841   8.200   1.347   8.769
10842OM     OM110842   4.557   0.482   2.197
10843OM     OM110843   4.724   0.594   2.368
10844OM     OM110844   6.261   9.287   2.207
10845OM     OM110845   5.156   0.242   1.394
10846OM     OM110846   5.334   0.399   1.507
10847OM     OM110847   2.543   9.449   9.399
10848OM     OM110848   3.375   0.880   7.604
10849OM     OM110849   4.944   0.787   0.101
10850OM     OM110850   3.779   9.403   5.216
10851OM     OM110851   3.740   9.583   5.402
10852OM     OM110852   6.986   8.349   6.576
10853OM     OM110853   4.642   0.561   7.743
10854OM     OM110854   3.911   9.207   6.212
10855OM     OM110855   8.751   0.966   3.893
10856OM     OM110856   0.717   0.933   4.536
10857OM     OM110857   0.790   1.154   4.421
10858OM     OM110858   4.223   8.343   0.509
10859OM     OM110859   9.366   0.280   1.111
10860OM     OM110860   2.596   9.561   4.987
10861OM     OM110861   2.495   0.107   4.791
10862OM     OM110862   5.426   8.749   3.435
10863OM     OM110863   5.270   9.371   6.563
10864OM     OM110864   3.008   1.224   0.357
10865OM     OM110865   0.799   9.298   8.775
10866OM     OM110866   0.381   1.257   6.282
10867OM     OM110867   3.135   1.183   0.128
10868OM     OM110868   4.264   1.281   9.439
10869OM     OM110869   4.511   1.341   9.348
10870OM     OM110870   7.840   8.584   8.306
10871OM     OM110871   7.794   8.931   5.118
10872OM     OM110872   7.790   8.912   4.695
10873OM     OM110873   8.709   1.267   5.761
10874OM     OM110874   8.693   1.154   5.995
10875OM     OM110875   9.072   0.758   7.457
10876OM     OM110876   9.432   8.651   7.376
10877OM     OM110877   5.598   0.108   3.076
10878OM     OM110878   7.173   0.248   5.017
10879OM     OM110879   7.265   0.493   4.966
10880OM     OM110880   0.559   0.142   2.281
10881OM     OM110881   8.801   0.515   3.561
10882OM     OM110882   8.032   0.361   5.655
10883OM     OM110883   5.291   0.323   6.899
10884OM     OM110884   4.887   0.328   7.048
10885OM     OM110885   5.311   0.508   7.078
10886OM     OM110886   3.483   8.631   1.547
10887OM     OM110887   0.935   1.182   7.662
10888OM     OM110888   2.564   1.115   3.760
10889OM     OM110889   9.362   9.268   6.996
10890OM     OM110890   3.409   0.445   4.968
10891OM     OM110891   9.281   8.453   6.503
10892OM     OM110892   1.494   9.018   5.268
10893OM     OM110893   1.381   9.059   5.040
10894OM     OM110894   1.530   9.249   5.144
10895OM     OM110895   2.479   0.375   4.753
10896OM     OM110896   3.416   8.652   7.474
10897OM     OM110897   1.436   9.575   2.006
10898OM     OM110898   7.771   8.499   8.082
10899OM     OM110899   8.042   8.554   8.161
10900OM     OM110900   0.817   9.147   8.566
10901OM     OM110901   3.943   9.097   6.429
10902OM     OM110902   4.250   8.178   6.772
10903OM     OM110903   8.806   0.964   4.148
10904OM     OM110904   6.769   0.652   9.244
10905OM     OM110905   6.709   0.902   9.211
10906OM     OM110906   7.088   8.411   3.797
10907OM     OM110907   3.002   8.478   3.954
10908OM     OM110908   6.923   0.403   4.399
10909OM     OM110909   7.461   9.127   6.341
10910OM     OM110910   7.516   8.873   6.292
10911OM     OM110911   8.402   1.276   6.219
10912OM     OM110912   3.283   1.038   9.582
10913OM     OM110913   9.501   1.069   4.052
10914OM     OM110914   9.535   9.338   6.810
10915OM     OM110915   9.044   8.739   1.256
10916OM     OM110916   5.943   1.097   3.794
10917OM     OM110917   1.433   0.231   1.125
10918OM     OM110918   7.484   0.881   4.975
10919OM     OM110919   1.762   0.062   6.770
10920OM     OM110920   9.297   1.062   4.217
10921OM     OM110921   5.323   9.082   8.394
10922OM     OM110922   5.369   9.251   8.592
10923OM     OM110923   5.488   1.353   0.998
10924OM     OM110924   6.195   9.254   4.551
10925OM     OM110925   0.145   8.747   3.078
10926OM     OM110926   3.627   8.456   6.705
10927OM     OM110927   7.052   0.597   4.292
10928OM     OM110928   3.617   8.664   6.865
10929OM     OM110929   3.752   8.594   7.069
10930OM     OM110930   2.387   9.304   8.641
10931OM     OM110931   8.657   0.593   6.726
10932OM     OM110932   7.440   1.132   9.303
10933OM     OM110933   4.680   0.272   5.136
10934OM     OM110934   8.017   0.576   1.392
10935OM     OM110935   5.451   9.398   6.389
10936OM     OM110936   1.105   0.451   2.167
10937OM     OM110937   8.332   9.493   9.548
10938OM     OM110938   6.434   0.718   1.375
10939OM     OM110939   7.277   0.912   2.997
10940OM     OM110940   9.447   1.242   7.725
10941OM     OM110941   8.979   8.865   8.883
10942OM     OM110942   2.078   8.427   6.284
10943OM     OM110943   5.896   8.690   2.589
10944OM     OM110944   5.890   8.464   2.720
10945OM     OM110945   1.398   1.202   2.771
10946OM     OM110946   1.571   0.886   7.973
10947OM     OM110947   1.776   0.947   2.415
10948OM     OM110948   5.745   8.584   2.409
10949OM     OM110949   1.885   8.217   1.992
10950OM     OM110950   1.681   8.289   1.853
10951OM     OM110951   2.807   9.550   5.148
10952OM     OM110952   2.584   0.051   5.235
10953OM     OM110953   2.230   0.697   7.492
10954OM     OM110954   5.925   8.549   1.246
10955OM     OM110955   8.412   9.196   8.098
10956OM     OM110956   6.862   0.640   1.571
10957OM     OM110957   4.200   1.414   7.004
10958OM     OM110958   2.731   0.824   8.591
10959OM     OM110959   3.908   8.699   7.479
10960OM     OM110960   3.827   8.524   7.307
10961OM     OM110961   3.659   8.706   7.398
10962OM     OM110962   2.803   8.702   7.857
10963OM     OM110963   6.181   9.495   4.480
10964OM     OM110964   8.238   1.004   7.020
10965OM     OM110965   8.336   0.963   7.251
10966OM     OM110966   8.954   8.903   1.074
10967OM     OM110967   3.144   0.419   3.854
10968OM     OM110968   9.533   0.728   4.752
10969OM     OM110969   6.748   0.901   3.545
10970OM     OM110970   5.685   0.967   6.009
10971OM     OM110971   5.490   0.991   7.045
10972OM     OM110972   8.970   0.811   8.140
10973OM     OM110973   5.545   8.865   1.229
10974OM     OM110974   5.338   8.487   0.928
10975OM     OM110975   2.275   0.225   4.733
10976OM     OM110976   6.420   1.103   1.143
10977OM     OM110977   1.873   0.287   6.699
10978OM     OM110978   1.747   0.150   6.514
10979OM     OM110979   8.050   9.015   2.344
10980OM     OM110980   7.796   0.912   6.865
10981OM     OM110981   8.038   0.855   6.930
10982OM     OM110982   2.961   1.006   5.541
10983OM     OM110983   8.386   0.231   6.789
10984OM     OM110984   8.532   0.201   7.000
10985OM     OM110985   8.506   0.440   6.894
10986OM     OM110986   7.497   0.149   8.390
10987OM     OM110987   6.620   9.287   6.004
10988OM     OM110988   8.619   1.270   5.511
10989OM     OM110989   6.679   0.782   1.439
10990OM     OM110990   4.719   9.455   5.165
10991OM     OM110991   6.391   1.331   1.818
10992OM     OM110992   4.169   0.588   2.003
10993OM     OM110993   2.447   0.483   1.871
10994OM     OM110994   6.737   0.388   9.207
10995OM     OM110995   4.189   8.335   4.607
10996OM     OM110996   2.330   8.688   3.233
10997OM     OM110997   2.946   0.334   3.695
10998OM     OM110998   0.703   9.462   7.115
10999OM     OM110999   6.995   0.019   7.016
11000OM     OM111000   6.829   0.164   6.846
11001OM     OM111001   5.937   9.498   3.366
11002OM     OM111002   5.798   9.547   3.142
11003OM     OM111003   3.026   1.246   1.545
11004OM     OM111004   2.890   1.037   1.634
11005OM     OM111005   8.380   8.785   5.442
11006OM     OM111006   3.228   8.780   7.966
11007OM     OM111007   5.063   8.374   8.979
11008OM     OM111008   5.275   8.340   8.825
11009OM     OM111009   5.839   1.220   2.295
11010OM     OM111010   2.926   8.700   6.091
11011OM     OM111011   4.939   0.002   5.150
11012OM     OM111012   8.235   0.522   3.963
11013OM     OM111013   7.064   0.834   4.370
11014OM     OM111014   7.715   1.158   6.879
11015OM     OM111015   0.052   8.909   2.279
11016OM     OM111016   4.394   0.582   7.806
11017OM     OM111017   2.299   9.373   8.871
11018OM     OM111018   6.382   9.017   0.210
11019OM     OM111019   6.151   9.142   0.207
11020OM     OM111020   3.021   9.397   2.976
11021OM     OM111021   3.130   9.466   2.747
11022OM     OM111022   4.369   0.972   8.670
11023OM     OM111023   5.130   0.798   6.444
11024OM     OM111024   0.803   8.919   1.805
11025OM     OM111025   0.766   8.706   1.652
11026OM     OM111026   7.736   0.180   8.291
11027OM     OM111027   6.191   9.363   1.967
11028OM     OM111028   4.462   0.437   8.899
11029OM     OM111029   2.200   1.163   6.585
11030OM     OM111030   2.205   1.013   6.800
11031OM     OM111031   2.667   0.053   9.511
11032OM     OM111032   3.905   1.413   5.476
11033OM     OM111033   8.438   0.430   4.120
11034OM     OM111034   3.802   9.508   4.635
11035OM     OM111035   7.289   0.744   4.867
11036OM     OM111036   4.345   0.691   6.047
11037OM     OM111037   6.407   0.782   6.932
11038OM     OM111038   7.697   9.531   9.599
11039OM     OM111039   2.675   0.991   8.398
11040OM     OM111040   7.646   0.869   5.943
11041OM     OM111041   4.139   1.031   4.947
11042OM     OM111042   4.116   1.234   4.794
11043OM     OM111043   6.797   1.141   5.453
11044OM     OM111044   3.559   1.286   7.254
11045OM     OM111045   0.862   8.489   1.545
11046OM     OM111046   9.180   9.406   8.623
11047OM     OM111047   9.359   9.574   8.527
11048OM     OM111048   7.668   9.347   7.411
11049OM     OM111049   2.687   1.164   4.374
11050OM     OM111050   7.237   0.121   6.027
11051OM     OM111051   6.466   0.494   4.055
11052OM     OM111052   5.579   1.197   2.297
11053OM     OM111053   5.290   0.710   5.507
11054OM     OM111054   5.162   0.117   7.919
11055OM     OM111055   4.959   9.573   7.842
11056OM     OM111056   0.236   0.543   2.860
11057OM     OM111057   1.698   0.559   1.762
11058OM     OM111058   6.397   0.123   2.804
11059OM     OM111059   7.894   1.018   5.398
11060OM     OM111060   5.916   9.458   6.385
11061OM     OM111061   5.790   9.549   6.170
11062OM     OM111062   3.198   8.398   4.908
11063OM     OM111063   4.077   0.376   7.116
11064OM     OM111064   8.353   0.697   1.769
11065OM     OM111065   9.142   9.339   0.695
11066OM     OM111066   6.554   0.898   1.233
11067OM     OM111067   1.745   9.456   3.334
11068OM     OM111068   1.046   9.268   7.727
11069OM     OM111069   6.715   1.305   2.522
11070OM     OM111070   1.916   1.051   0.796
11071OM     OM111071   1.064   0.208   5.373
11072OM     OM111072   4.944   0.251   5.093
11073OM     OM111073   4.806   0.472   5.044
11074OM     OM111074   8.487   9.054   8.592
11075OM     OM111075   3.962   8.328   0.496
11076OM     OM111076   8.169   0.566   9.534
11077OM     OM111077   5.603   0.804   4.094
11078OM     OM111078   4.003   8.476   5.132
11079OM     OM111079   1.100   0.461   5.369
11080OM     OM111080   1.312   0.327   5.418
11081OM     OM111081   0.777   8.300   0.388
11082OM     OM111082   7.230   9.021   0.506
11083OM     OM111083   3.927   0.633   1.924
11084OM     OM111084   0.818   8.692   7.065
11085OM     OM111085   6.619   8.715   1.930
11086OM     OM111086   0.409   0.758   7.858
11087OM     OM111087   1.650   9.600   0.270
11088OM     OM111088   3.764   9.458   5.635
11089OM     OM111089   0.991   0.195   6.892
11090OM     OM111090   1.240   0.180   6.964
11091OM     OM111091   7.520   0.870   1.997
11092OM     OM111092   7.545   1.250   9.522
11093OM     OM111093   3.827   9.567   6.363
11094OM     OM111094   4.261   9.249   4.376
11095OM     OM111095   0.919   1.048   7.895
11096OM     OM111096   6.828   0.527   3.083
11097OM     OM111097   0.956   1.298   7.894
11098OM     OM111098   3.132   9.372   2.499
11099OM     OM111099   8.474   0.173   4.087
11100OM     OM111100   3.486   0.653   7.667
11101OM     OM111101   5.434   0.767   4.901
11102OM     OM111102   5.425   0.517   4.985
11103OM     OM111103   7.638   0.319   3.197
11104OM     OM111104   8.264   9.201   8.677
11105OM     OM111105   4.576   1.099   9.300
11106OM     OM111106   9.580   8.718   4.969
11107OM     OM111107   7.176   8.804   3.183
11108OM     OM111108   9.518   0.052   8.343
11109OM     OM111109   7.803   0.460   2.535
11110OM     OM111110   3.863   1.174   4.827
11111OM     OM111111   6.417   9.434   2.084
11112OM     OM111112   1.929   9.582   3.174
11113OM     OM111113   7.691   1.121   9.367
11114OM     OM111114   2.548   9.445   1.620
11115OM     OM111115   5.126   0.176   7.673
11116OM     OM111116   2.437   1.162   4.282
11117OM     OM111117   7.677   9.475   8.766
11118OM     OM111118   0.084   9.449   1.738
11119OM     OM111119   8.698   0.389   2.765
11120OM     OM111120   5.270   0.325   4.907
11121OM     OM111121   1.997   0.905   1.000
11122OM     OM111122   4.702   9.590   7.820
11123OM     OM111123   1.447   9.586   1.476
11124OM     OM111124   5.425   1.004   4.782
11125OM     OM111125   9.201   1.098   5.888
11126OM     OM111126   6.160   8.712   3.685
11127OM     OM111127   3.717   9.262   8.287
11128OM     OM111128   2.847   0.953   7.807
11129OM     OM111129   2.048   9.445   8.908
11130OM     OM111130   0.560   8.679   7.093
11131OM     OM111131   0.765   8.735   5.858
11132OM     OM111132   0.735   8.971   5.949
11133OM     OM111133   0.869   0.354   2.851
11134OM     OM111134   8.159   0.598   1.617
11135OM     OM111135   5.914   9.154   0.328
11136OM     OM111136   4.314   8.916   1.383
11137OM     OM111137   1.222   1.369   2.321
11138OM     OM111138   8.237   1.135   2.346
11139OM     OM111139   5.191   1.190   3.846
11140OM     OM111140   2.315   1.309   0.873
11141OM     OM111141   3.698   1.334   5.791
11142OM     OM111142   8.929   1.342   7.274
11143OM     OM111143   1.462   8.191   2.132
11144OM     OM111144   6.254   8.213   5.555
11145OM     OM111145   4.160   1.345   4.151
11146OM     OM111146   7.385   1.249   7.859
11147OM     OM111147   9.390   1.337   0.847
11148OM     OM111148   8.377   8.236   4.913
11149OM     OM111149   4.723   8.282   4.602
11150OM     OM111150   3.931   1.215   0.381
11151OM     OM111151   1.246   1.329   1.050
11152OM     OM111152   1.081   8.245   9.283
11153OM     OM111153   1.548   8.391   9.037
11154OM     OM111154   6.118   1.350   6.899
11155OM     OM111155   6.218   8.338   1.709
11156OM     OM111156   3.242   8.281   2.594
11157OM     OM111157   2.612   1.380   7.184
11158OM     OM111158   4.914   8.366   7.963
11159OM     OM111159   5.356   1.266   3.220
11160OM     OM111160   7.716   1.331   1.537
11161OM     OM111161   3.453   1.332   1.548
11162OM     OM111162   4.910   8.242   2.629
11163OM     OM111163   0.198   1.318   1.386
11164OM     OM111164   5.432   8.229   1.231
11165OM     OM111165   3.966   8.315   1.436
11166OM     OM111166   1.948   8.106   6.101
11167OM     OM111167   6.765   1.367   7.755
11168OM     OM111168   7.416   1.310   0.119
11169OM     OM111169   7.384   1.405   9.001
11170OM     OM111170   4.594   1.395   1.763
11171OM     OM111171   0.351   8.281   1.953
11172OM     OM111172   6.632   8.323   9.025
11173OM     OM111173   9.374   8.232   0.053
11174OM     OM111174   0.278   8.281   8.171
11175OM     OM111175   4.499   8.174   4.056
11176OM     OM111176   0.381   1.314   5.213
11177OM     OM111177   1.933   1.389   0.830
11178OM     OM111178   2.648   8.258   9.308
11179OM     OM111179   6.959   1.262   8.209
11180OM     OM111180   8.884   8.292   0.172
11181OM     OM111181   3.901   1.323   8.698
11182OM     OM111182   3.287   8.184   5.131
11183OM     OM111183   0.642   1.386   3.203
11184OM     OM111184   1.661   1.428   1.359
11185OM     OM111185   1.621   8.149   6.555
11186OM     OM111186   3.032   1.316   2.586
11187OM     OM111187   9.271   1.203   3.691
11188OM     OM111188   8.941   1.352   2.095
11189OM     OM111189   5.169   1.358   6.998
11190OM     OM111190   2.006   1.358   0.299
11191OM     OM111191   8.696   8.248   2.354
11192OM     OM111192   0.258   1.323   1.752
11193OM     OM111193   1.992   1.316   2.840
11194OM     OM111194   8.268   8.361   6.108
11195OM     OM111195   4.258   1.385   4.965
11196OM     OM111196   3.653   1.177   7.433
11197OM     OM111197   2.169   8.246   3.524
11198OM     OM111198   9.156   1.315   4.048
11199OM     OM111199   9.537   1.425   4.385
11200OM     OM111200   5.912   1.353   8.263
11201OM     OM111201   2.363   1.340   9.181
11202OM     OM111202   1.652   1.415   4.070
11203OM     OM111203   7.767   8.225   8.051
11204OM     OM111204   6.473   1.335   9.033
11205OM     OM111205   2.951   1.415   9.446
11206OM     OM111206   9.315   1.330   4.801
11207OM     OM111207   5.566   8.319   6.075
11208OM     OM111208   6.780   1.341   5.522
11209OM     OM111209   6.575   8.250   4.270
11210OM     OM111210   5.990   8.359   1.534
11211OM     OM111211   1.969   1.418   6.449
11212OM     OM111212   2.381   1.321   7.946
11213OM     OM111213   3.514   8.181   3.724
11214OM     OM111214   5.661   1.306   1.319
11215OM     OM111215   1.627   1.323   5.256
11216OM     OM111216   4.301   1.227   3.769
11217OM     OM111217   4.853   1.435   3.302
11218OM     OM111218   0.439   8.260   6.486
11219OM     OM111219   7.788   8.437   4.964
11220OM     OM111220   8.834   1.316   1.502
11221OM     OM111221   8.094   1.364   9.241
11222OM     OM111222   1.614   1.313   7.140
11223OM     OM111223   1.560   8.240   0.557
11224OM     OM111224   6.955   1.179   6.279
11225OM     OM111225   4.533   1.381   7.412
11226OM     OM111226   3.034   8.160   6.105
11227OM     OM111227   6.924   1.416   2.865
11228OM     OM111228   5.427   8.187   8.857
11229OM     OM111229   3.771   8.287   4.087
11230OM     OM111230   3.015   8.352   8.423
11231OM     OM111231   2.201   1.407   3.618
11232OM     OM111232   7.091   8.165   0.340
11233OM     OM111233   1.953   1.439   1.467
11234OM     OM111234   3.121   8.403   0.971
11235OM     OM111235   7.817   8.143   7.533
11236OM     OM111236   0.526   1.467   4.616
11237OM     OM111237   1.843   8.303   8.363
11238OM     OM111238   0.262   8.274   3.965
11239OM     OM111239   9.273   8.154   0.836
11240OM     OM111240   7.872   8.251   2.383
11241OM     OM111241   0.572   1.470   8.753
11242OM     OM111242   1.636   1.353   2.105
11243OM     OM111243   6.910   1.378   2.428
11244OM     OM111244   8.766   1.438   1.107
11245OM     OM111245   2.695   1.369   1.892
11246OM     OM111246   6.336   8.359   6.339
11247OM     OM111247   6.815   8.367   1.785
11248OM     OM111248   7.322   1.330   4.221
11249OM     OM111249   7.586   8.186   0.750
11250OM     OM111250   8.737   8.244   0.346
11251OM     OM111251   6.708   8.268   8.824
11252OM     OM111252   2.332   1.315   4.493
11253OM     OM111253   1.655   8.308   2.417
11254OM     OM111254   7.025   8.253   1.132
11255OM     OM111255   5.482   8.134   1.599
11256OM     OM111256   2.998   8.126   8.055
11257OM     OM111257   5.030   1.443   1.718
11258OM     OM111258   3.452   8.235   0.389
11259OM     OM111259   5.420   1.336   8.629
11260OM     OM111260   4.084   8.217   6.397
11261OM     OM111261   3.467   1.440   3.571
11262OM     OM111262   2.013   1.427   4.701
11263OM     OM111263   2.381   8.145   3.852
11264OM     OM111264   0.660   8.236   2.732
11265OM     OM111265   9.263   1.407   2.283
11266OM     OM111266   3.447   1.325   5.551
11267OM     OM111267   0.517   8.233   7.738
11268OM     OM111268   4.020   1.331   8.059
11269OM     OM111269   5.562   8.104   2.917
11270OM     OM111270   1.863   8.384   3.882
11271OM     OM111271   2.703   1.301   6.221
11272OM     OM111272   0.303   8.334   7.198
11273OM     OM111273   9.232   1.359   8.869
11274OM     OM111274   7.157   1.358   1.270
11275OM     OM111275   6.200   1.300   6.068
11276OM     OM111276   1.370   1.290   9.465
11277OM     OM111277   6.510   8.267   7.019
11278OM     OM111278   0.398   1.369   8.128
11279OM     OM111279   1.739   1.453   5.499
11280OM     OM111280   9.237   1.331   8.007
11281OM     OM111281   6.788   8.176   2.649
11282OM     OM111282   6.410   1.277   0.764
11283OM     OM111283   8.626   1.375   7.576
11284OM     OM111284   5.157   1.346   2.656
11285OM     OM111285   0.635   8.149   1.019
11286OM     OM111286   0.964   8.268   5.617
11287OM     OM111287   5.974   8.147   7.206
11288OM     OM111288   7.817   8.161   6.444
11289OM     OM111289   4.080   8.232   2.966
11290OM     OM111290   2.950   1.298   8.382
11291OM     OM111291   9.377   8.359   2.993
11292OM     OM111292   4.111   8.205   5.227
11293OM     OM111293   0.321   8.303   0.732
11294OM     OM111294   7.151   8.149   8.087
11295OM     OM111295   0.942   1.419   2.822
11296OM     OM111296   8.630   8.204   0.984
11297OM     OM111297   5.426   1.293   4.300
11298OM     OM111298   4.895   1.280   5.386
11299OM     OM111299   8.230   1.288   1.925
11300OM     OM111300   9.231   1.422   7.717
11301OM     OM111301   0.312   1.279   6.773
11302OM     OM111302   6.613   1.408   2.258
11303OM     OM111303   0.937   1.408   6.167
11304OM     OM111304   3.035   1.343   4.971
11305OM     OM111305   3.932   1.394   7.147
11306OM     OM111306   8.822   1.187   0.321
11307OM     OM111307   0.041   8.245   6.028
11308OM     OM111308   8.097   1.213   1.406
11309OM     OM111309   6.946   8.245   8.624
11310OM     OM111310   3.936   8.354   4.545
11311OM     OM111311   5.636   1.365   3.128
11312OM     OM111312   2.415   8.364   8.809
11313OM     OM111313   6.262   8.343   1.142
11314OM     OM111314   7.395   1.288   2.803
11315OM     OM111315   0.764   1.394   8.894
11316OM     OM111316   8.293   8.129   1.365
11317OM     OM111317   9.120   1.357   6.362
11318OM     OM111318   7.942   1.450   0.696
11319OM     OM111319   7.065   1.341   6.239
11320OM     OM111320   3.541   8.186   8.050
11321OM     OM111321   1.055   1.394   8.249
11322OM     OM111322   7.963   1.382   4.650
11323OM     OM111323   7.436   8.316   6.814
11324OM     OM111324   5.943   8.153   2.734
11325OM     OM111325   6.131   8.301   4.779
11326OM     OM111326   4.321   8.197   7.172
11327OM     OM111327   5.836   8.294   0.182
11328OM     OM111328   1.082   8.145   1.577
11329OM     OM111329   8.833   8.303   5.659
11330OM     OM111330   5.214   1.286   5.960
11331OM     OM111331   9.519   8.262   2.069
11332OM     OM111332   7.806   8.121   8.408
11333OM     OM111333   0.902   8.200   3.552
11334OM     OM111334   5.663   1.414   6.408
11335OM     OM111335   1.473   8.401   0.431
11336OM     OM111336   8.838   8.306   9.129
11337OM     OM111337   4.754   8.288   7.030
11338OM     OM111338   6.626   8.398   0.522
11339OM     OM111339   1.865   1.411   9.483
11340OM     OM111340   5.564   8.291   7.958
11341OM     OM111341   6.069   8.244   4.353
11342OM     OM111342   8.267   8.376   9.101
11343OM     OM111343   5.669   8.336   4.543
11344OM     OM111344   3.128   1.353   3.973
11345OM     OM111345   2.673   1.384   3.632
11346OM     OM111346   8.892   8.393   5.026
11347OM     OM111347   7.863   8.166   7.015
11348OM     OM111348   5.010   8.241   3.892
11349OM     OM111349   6.055   8.233   5.342
11350OM     OM111350   7.644   8.321   5.210
11351OM     OM111351   6.194   1.165   3.910
11352OM     OM111352   4.709   8.208   2.189
11353OM     OM111353   5.396   8.159   3.395
11354OM     OM111354   2.481   8.356   2.386
11355OM     OM111355   2.255   8.178   4.136
11356OM     OM111356   5.435   1.399   9.279
11357OM     OM111357   3.518   1.419   7.040
11358OM     OM111358   8.668   1.288   6.536
11359OM     OM111359   7.779   1.426   0.203
11360OM     OM111360   8.683   8.310   7.690
11361OM     OM111361   0.341   1.352   2.856
11362OM     OM111362   0.857   8.167   7.900
11363OM     OM111363   8.123   1.257   3.050
11364OM     OM111364   6.220   1.355   1.431
11365OM     OM111365   6.285   8.402   7.810
11366OM     OM111366   1.646   8.219   5.897
11367OM     OM111367   7.800   1.333   4.848
11368OM     OM111368   3.563   8.298   9.256
11369OM     OM111369   8.181   1.364   6.469
11370OM     OM111370   0.222   8.296   5.899
11371OM     OM111371   7.416   8.235   8.858
11372OM     OM111372   3.389   8.218   6.629
11373OM     OM111373   9.107   1.422   9.009
11374OM     OM111374   7.271   8.207   3.315
11375OM     OM111375   2.351   1.306   6.212
11376OM     OM111376   0.138   8.366   8.343
11377OM     OM111377   4.491   1.351   0.424
11378OM     OM111378   2.489   8.317   4.817
11379OM     OM111379   1.956   8.450   0.745
11380OM     OM111380   5.714   8.231   2.031
11381OM     OM111381   5.621   1.250   5.510
11382OM     OM111382   8.284   1.366   1.333
11383OM     OM111383   4.606   1.258   6.001
11384OM     OM111384   1.410   8.286   2.948
11385OM     OM111385   9.063   8.207   6.735
11386OM     OM111386   0.274   1.345   7.055
11387OM     OM111387   1.953   8.276   7.272
11388OM     OM111388   3.071   8.319   3.660
11389OM     OM111389   0.481   1.330   0.454
11390OM     OM111390   3.436   1.277   4.709
11391OM     OM111391   8.536   1.233   7.139
11392OM     OM111392   7.540   8.264   1.073
11393OM     OM111393   1.957   8.147   3.112
11394OM     OM111394   1.986   1.483   6.697
11395OM     OM111395   7.565   8.231   3.838
11396OM     OM111396   5.450   1.409   4.805
11397OM     OM111397   3.416   1.409   8.487
11398OM     OM111398   4.498   8.435   3.161
11399OM     OM111399   3.475   1.182   2.334
11400OM     OM111400   0.310   8.208   3.755
11401OM     OM111401   3.033   8.174   0.477
11402OM     OM111402   2.781   1.347   7.305
11403OM     OM111403   5.571   1.340   2.050
11404OM     OM111404   6.865   1.219   4.694
11405OM     OM111405   0.731   1.382   6.467
11406OM     OM111406   7.991   1.258   7.596
11407OM     OM111407   3.229   8.152   5.594
11408OM     OM111408   6.926   8.280   5.865
11409OM     OM111409   1.081   8.188   5.425
11410OM     OM111410   0.423   1.482   4.286
11411OM     OM111411   6.575   1.175   1.329
11412OM     OM111412   8.103   8.191   5.697
11413OM     OM111413   2.139   1.334   4.874
11414OM     OM111414   0.280   8.181   0.501
11415OM     OM111415   3.767   8.401   6.443
11416OM     OM111416   8.116   8.417   2.913
11417OM     OM111417   2.422   1.418   5.753
11418OM     OM111418   9.024   8.306   6.318
11419OM     OM111419   8.401   1.394   8.803
11420OM     OM111420   0.708   8.254   7.071
11421OM     OM111421   1.843   8.295   8.786
11422OM     OM111422   4.058   8.286   0.314
11423OM     OM111423   6.047   1.371   2.940
11424OM     OM111424   0.794   8.225   6.201
11425OM     OM111425   5.686   8.472   8.671
11426OM     OM111426   2.177   1.367   8.821
11427OM     OM111427   2.423   8.301   8.287
11428OM     OM111428   6.709   1.424   5.815
11429OM     OM111429   8.024   8.170   2.526
11430OM     OM111430   5.758   1.163   9.587
11431OM     OM111431   2.546   8.247   1.332
11432OM     OM111432   2.225   8.140   9.069
11433OM     OM111433   0.662   1.477   5.661
11434OM     OM111434   2.939   8.175   4.415
11435OM     OM111435   5.691   1.402   2.471
11436OM     OM111436   3.430   1.419   2.315
11437OM     OM111437   6.575   1.492   6.134
11438OM     OM111438   8.089   8.304   4.212
11439OM     OM111439   3.375   0.894   3.005
11440OM     OM111440   3.085   8.358   2.819
11441OM     OM111441   6.287   8.212   0.626
11442OM     OM111442   0.836   8.233   4.633
11443OM     OM111443   5.399   8.259   0.974
11444OM     OM111444   1.399   1.414   2.583
11445OM     OM111445   4.409   1.286   2.522
11446OM     OM111446   8.457   8.203   1.543
11447OM     OM111447   3.606   8.334   1.073
11448OM     OM111448   0.395   8.239   9.226
11449SI     SI111449   3.828   0.428   2.951
11450SI     SI111450   6.126   8.914   5.549
11451SI     SI111451   4.913   1.184   3.675
11452SI     SI111452   8.881   9.347   4.095
11453SI     SI111453   0.699   1.413   4.887
11454SI     SI111454   5.800   1.166   6.900
11455SI     SI111455   1.683   0.736   0.810
11456SI     SI111456   7.992   8.357   5.884
11457SI     SI111457   8.774   0.282   6.195
11458SI     SI111458   3.389   9.440   6.775
11459SI     SI111459   1.312   9.568   3.075
11460SI     SI111460   7.965   8.432   1.045
11461SI     SI111461   1.439   9.127   8.128
11462SI     SI111462   6.947   8.744   6.527
11463SI     SI111463   3.847   0.140   1.109
11464SI     SI111464   1.783   8.425   1.466
11465SI     SI111465   1.368   8.353   3.200
11466SI     SI111466   4.137   0.148   4.574
11467SI     SI111467   4.816   1.158   9.585
11468SI     SI111468   3.645   8.705   4.078
11469SI     SI111469   2.910   0.758   0.952
11470SI     SI111470   5.951   0.442   1.925
11471SI     SI111471   8.830   1.332   4.024
11472SI     SI111472   0.323   9.200   1.479
11473SI     SI111473   5.765   9.444   1.368
11474SI     SI111474   0.418   0.269   3.122
11475SI     SI111475   0.550   0.498   2.146
11476SI     SI111476   7.549   0.360   5.127
11477SI     SI111477   9.428   9.284   0.142
11478SI     SI111478   4.001   9.518   2.392
11479SI     SI111479   0.512   8.305   6.963
11480SI     SI111480   5.426   9.080   5.127
11481SI     SI111481   6.024   9.095   8.697
11482SI     SI111482   5.714   9.145   5.045
11483SI     SI111483   1.435   1.254   5.140
11484SI     SI111484   0.595   8.655   3.836
11485SI     SI111485   6.213   8.448   2.270
11486SI     SI111486   2.325   0.259   3.493
11487SI     SI111487   7.683   0.272   1.521
11488SI     SI111488   9.031   9.487   4.333
11489SI     SI111489   5.092   8.826   2.824
11490SI     SI111490   8.172   0.708   7.506
11491SI     SI111491   1.677   8.587   1.228
11492SI     SI111492   0.859   0.692   1.819
11493SI     SI111493   5.849   0.944   0.144
11494SI     SI111494   5.432   0.975   6.300
11495SI     SI111495   5.539   0.486   3.315
11496SI     SI111496   7.278   0.208   6.570
11497SI     SI111497   8.774   0.574   0.787
11498SI     SI111498   7.206   9.133   3.448
11499SI     SI111499   3.381   0.816   3.708
11500SI     SI111500   2.416   1.046   2.616
11501SI     SI111501   3.393   0.368   7.945
11502SI     SI111502   7.418   9.481   5.035
11503SI     SI111503   8.015   8.654   1.468
11504SI     SI111504   8.499   8.343   9.063
11505SI     SI111505   6.294   0.021   3.373
11506SI     SI111506   7.023   0.795   0.525
11507SI     SI111507   6.151   0.522   0.620
11508SI     SI111508   2.722   8.385   1.436
11509SI     SI111509   8.664   9.108   5.957
11510SI     SI111510   8.169   0.867   5.177
11511SI     SI111511   6.333   8.997   1.534
11512SI     SI111512   9.174   8.389   6.861
11513SI     SI111513   7.989   9.269   2.595
11514SI     SI111514   9.236   9.228   6.066
11515SI     SI111515   8.645   8.405   2.641
11516SI     SI111516   5.358   0.783   3.641
11517SI     SI111517   7.655   9.094   1.210
11518SI     SI111518   6.913   0.542   6.111
11519SI     SI111519   8.816   9.324   7.576
11520SI     SI111520   3.097   0.034   1.541
11521SI     SI111521   1.560   0.195   4.297
11522SI     SI111522   2.265   0.278   4.043
11523SI     SI111523   3.267   1.182   1.786
11524SI     SI111524   5.598   9.315   0.120
11525SI     SI111525   1.064   0.801   1.322
11526SI     SI111526   6.900   0.253   6.230
11527SI     SI111527   5.979   0.011   5.508
11528SI     SI111528   4.147   8.955   7.303
11529SI     SI111529   4.153   0.154   8.892
11530SI     SI111530   0.160   8.996   4.706
11531SI     SI111531   8.885   9.297   2.737
11532SI     SI111532   0.060   8.999   7.192
11533SI     SI111533   4.579   8.298   1.916
11534SI     SI111534   7.349   0.630   3.281
11535SI     SI111535   9.254   1.163   0.613
11536SI     SI111536   4.294   0.177   5.097
11537SI     SI111537   8.328   0.796   8.586
11538SI     SI111538   5.570   8.421   4.265
11539SI     SI111539   9.189   8.440   7.411
11540SI     SI111540   4.305   8.640   8.788
11541SI     SI111541   1.373   0.173   6.424
11542SI     SI111542   9.108   1.007   2.967
11543SI     SI111543   8.123   0.020   7.835
11544SI     SI111544   0.496   9.288   9.437
11545SI     SI111545   3.973   9.057   8.756
11546SI     SI111546   8.769   0.160   0.995
11547SI     SI111547   9.575   0.207   4.168
11548SI     SI111548   6.275   0.069   9.203
11549SI     SI111549   6.740   8.563   4.354
11550SI     SI111550   0.305   1.257   0.244
11551SI     SI111551   5.076   0.207   9.187
11552SI     SI111552   9.011   9.409   6.203
11553SI     SI111553   1.891   9.359   0.153
11554SI     SI111554   5.078   9.081   4.162
11555SI     SI111555   8.690   8.889   7.669
11556SI     SI111556   1.634   8.389   6.691
11557SI     SI111557   9.182   9.441   1.920
11558SI     SI111558   8.176   8.213   2.329
11559SI     SI111559   7.104   0.346   5.368
11560SI     SI111560   2.133   0.961   8.193
11561SI     SI111561   4.714   9.161   3.228
11562SI     SI111562   5.777   0.341   6.064
11563SI     SI111563   8.884   8.620   6.759
11564SI     SI111564   2.259   8.304   3.733
11565SI     SI111565   0.671   9.537   3.379
11566SI     SI111566   7.763   1.166   1.347
11567SI     SI111567   1.920   0.177   5.263
11568SI     SI111568   5.160   9.168   7.635
11569SI     SI111569   6.701   8.465   3.816
11570SI     SI111570   0.282   8.950   0.872
11571SI     SI111571   3.599   9.091   9.451
11572SI     SI111572   6.351   9.248   5.548
11573SI     SI111573   9.416   0.210   2.982
11574SI     SI111574   0.733   8.387   6.770
11575SI     SI111575   3.012   1.161   5.153
11576SI     SI111576   5.588   1.294   5.008
11577SI     SI111577   6.318   1.169   7.646
11578SI     SI111578   7.565   0.537   8.398
11579SI     SI111579   1.076   9.284   4.116
11580SI     SI111580   3.877   9.053   9.602
11581SI     SI111581   3.566   1.086   6.475
11582SI     SI111582   1.434   8.929   8.718
11583SI     SI111583   5.960   0.226   3.533
11584SI     SI111584   8.756   9.222   6.238
11585SI     SI111585   7.875   0.664   4.071
11586SI     SI111586   5.010   9.471   6.294
11587SI     SI111587   6.865   8.441   1.157
11588SI     SI111588   2.773   8.855   2.364
11589SI     SI111589   6.339   8.556   6.912
11590SI     SI111590   9.237   0.552   8.035
11591SI     SI111591   7.290   0.263   3.945
11592SI     SI111592   0.237   8.838   7.373
11593SI     SI111593   8.132   9.090   5.794
11594SI     SI111594   1.559   0.033   9.384
11595SI     SI111595   2.394   9.194   5.711
11596SI     SI111596   9.081   1.140   4.999
11597SI     SI111597   7.670   9.154   0.118
11598SI     SI111598   7.959   9.062   0.145
11599SI     SI111599   6.040   0.852   3.252
11600SI     SI111600   1.649   9.470   2.444
11601SI     SI111601   6.754   1.271   1.489
11602SI     SI111602   0.037   0.268   6.930
11603SI     SI111603   4.640   8.840   9.085
11604SI     SI111604   8.514   9.386   7.645
11605SI     SI111605   4.847   9.160   0.141
11606SI     SI111606   8.853   0.121   6.594
11607SI     SI111607   0.450   0.086   0.583
11608SI     SI111608   8.888   9.342   1.942
11609SI     SI111609   7.670   0.326   7.691
11610SI     SI111610   9.593   8.469   0.811
11611SI     SI111611   8.430   0.066   7.761
11612SI     SI111612   8.368   0.088   1.595
11613SI     SI111613   0.203   0.630   8.807
11614SI     SI111614   0.077   0.333   1.377
11615SI     SI111615   5.562   9.046   4.146
11616SI     SI111616   0.581   1.391   4.136
11617SI     SI111617   3.392   9.560   3.589
11618SI     SI111618   9.027   9.075   5.541
11619SI     SI111619   7.438   8.675   2.120
11620SI     SI111620   8.537   0.001   0.872
11621SI     SI111621   0.493   8.651   4.276
11622SI     SI111622   2.687   8.750   6.934
11623SI     SI111623   6.002   0.730   0.309
11624SI     SI111624   3.390   0.242   4.445
11625SI     SI111625   8.134   1.041   9.018
11626SI     SI111626   9.065   0.352   3.328
11627SI     SI111627   3.711   0.986   0.650
11628SI     SI111628   3.613   8.360   0.602
11629SI     SI111629   3.410   0.785   6.850
11630SI     SI111630   2.633   8.768   3.529
11631SI     SI111631   2.073   9.035   5.893
11632SI     SI111632   4.198   9.578   3.632
11633SI     SI111633   9.379   8.493   9.003
11634SI     SI111634   5.221   0.585   0.937
11635SI     SI111635   3.419   0.705   9.271
11636SI     SI111636   7.015   9.437   8.132
11637SI     SI111637   8.900   9.026   5.262
11638SI     SI111638   3.426   9.390   5.343
11639SI     SI111639   1.574   9.532   7.819
11640SI     SI111640   0.068   8.827   4.447
11641SI     SI111641   1.091   8.427   3.091
11642SI     SI111642   4.433   9.577   4.903
11643SI     SI111643   1.770   1.095   1.189
11644SI     SI111644   8.351   9.529   8.281
11645SI     SI111645   9.377   1.049   4.980
11646SI     SI111646   4.282   0.744   2.824
11647SI     SI111647   1.142   0.036   3.466
11648SI     SI111648   6.666   0.095   0.812
11649SI     SI111649   8.403   1.105   4.146
11650SI     SI111650   4.487   0.476   0.757
11651SI     SI111651   8.941   9.496   1.027
11652SI     SI111652   9.317   0.920   1.869
11653SI     SI111653   7.055   9.597   1.809
11654SI     SI111654   1.039   8.903   8.316
11655SI     SI111655   6.406   0.162   0.665
11656SI     SI111656   1.767   9.116   0.303
11657SI     SI111657   3.495   0.121   3.824
11658SI     SI111658   7.338   8.570   4.527
11659SI     SI111659   7.001   0.888   9.047
11660SI     SI111660   6.005   9.564   6.709
11661SI     SI111661   1.155   1.173   3.113
11662SI     SI111662   0.054   1.081   8.600
11663SI     SI111663   7.283   0.724   9.399
11664SI     SI111664   4.700   0.262   8.587
11665SI     SI111665   2.313   0.257   0.819
11666SI     SI111666   2.153   8.846   8.863
11667SI     SI111667   6.935   1.213   7.922
11668SI     SI111668   6.049   0.083   2.671
11669SI     SI111669   5.438   8.761   5.596
11670SI     SI111670   2.510   9.124   8.125
11671SI     SI111671   0.423   8.887   8.913
11672SI     SI111672   0.634   8.751   7.891
11673SI     SI111673   6.608   0.518   6.744
11674SI     SI111674   7.435   8.725   3.505
11675SI     SI111675   4.894   9.225   7.804
11676SI     SI111676   2.737   9.221   0.103
11677SI     SI111677   2.402   0.585   5.907
11678SI     SI111678   6.197   0.125   1.602
11679SI     SI111679   2.153   8.971   7.862
11680SI     SI111680   3.325   1.168   1.277
11681SI     SI111681   6.236   8.612   6.207
11682SI     SI111682   0.134   0.563   6.288
11683SI     SI111683   5.036   8.786   6.763
11684SI     SI111684   7.967   8.671   3.601
11685SI     SI111685   7.398   9.142   5.857
11686SI     SI111686   2.262   0.405   5.681
11687SI     SI111687   6.534   1.356   5.583
11688SI     SI111688   7.441   0.661   8.881
11689SI     SI111689   9.030   9.268   7.138
11690SI     SI111690   1.704   0.967   2.762
11691SI     SI111691   2.340   0.138   7.634
11692SI     SI111692   1.185   0.915   2.996
11693SI     SI111693   8.696   8.635   5.259
11694SI     SI111694   4.111   8.733   7.111
11695SI     SI111695   3.790   9.068   7.574
11696SI     SI111696   7.301   9.436   6.309
11697SI     SI111697   5.285   0.288   8.529
11698SI     SI111698   3.339   0.371   1.901
11699SI     SI111699   1.889   0.532   5.974
11700SI     SI111700   1.129   0.970   4.402
11701SI     SI111701   8.024   8.374   3.505
11702SI     SI111702   5.997   0.240   8.863
11703SI     SI111703   0.732   8.885   8.824
11704SI     SI111704   4.714   0.815   6.471
11705SI     SI111705   0.330   1.210   8.573
11706SI     SI111706   0.544   1.374   8.457
11707SI     SI111707   3.355   9.394   4.078
11708SI     SI111708   4.116   9.292   9.068
11709SI     SI111709   0.535   9.354   6.840
11710SI     SI111710   6.861   0.664   1.990
11711SI     SI111711   6.887   0.689   8.828
11712SI     SI111712   4.935   8.680   7.780
11713SI     SI111713   9.110   0.830   6.643
11714SI     SI111714   9.008   0.592   7.821
11715SI     SI111715   4.443   1.088   6.016
11716SI     SI111716   5.535   0.896   7.410
11717SI     SI111717   1.913   8.579   7.063
11718SI     SI111718   0.924   9.112   7.225
11719SI     SI111719   0.864   0.006   5.158
11720SI     SI111720   8.144   9.248   9.601
11721SI     SI111721   8.381   8.970   0.380
11722SI     SI111722   3.485   9.468   8.524
11723SI     SI111723   0.728   0.320   3.187
11724SI     SI111724   4.483   8.933   7.581
11725SI     SI111725   5.490   8.236   3.611
11726SI     SI111726   8.832   0.525   9.581
11727SI     SI111727   0.259   1.216   1.021
11728SI     SI111728   8.527   8.527   0.218
11729SI     SI111729   3.661   0.377   1.897
11730SI     SI111730   8.929   8.771   5.111
11731SI     SI111731   4.825   0.046   6.474
11732SI     SI111732   2.929   9.478   3.417
11733SI     SI111733   7.395   9.535   0.607
11734SI     SI111734   7.625   0.107   4.718
11735SI     SI111735   4.006   8.559   5.669
11736SI     SI111736   2.456   0.009   3.372
11737SI     SI111737   5.175   0.933   5.074
11738SI     SI111738   6.069   8.740   6.439
11739SI     SI111739   6.990   9.178   8.675
11740SI     SI111740   5.791   0.136   4.608
11741SI     SI111741   0.815   1.112   0.403
11742SI     SI111742   0.673   9.106   5.072
11743SI     SI111743   0.829   9.477   4.069
11744SI     SI111744   7.269   8.223   1.094
11745SI     SI111745   2.001   0.295   7.040
11746SI     SI111746   8.956   0.686   8.451
11747SI     SI111747   8.429   9.476   6.860
11748SI     SI111748   2.627   8.816   0.262
11749SI     SI111749   7.704   9.580   4.998
11750SI     SI111750   0.691   0.575   9.222
11751SI     SI111751   7.563   8.883   5.842
11752SI     SI111752   1.275   0.936   1.132
11753SI     SI111753   8.893   9.246   7.872
11754SI     SI111754   7.897   0.949   2.120
11755SI     SI111755   5.458   8.648   5.876
11756SI     SI111756   3.153   8.191   5.857
11757SI     SI111757   4.548   0.369   6.559
11758SI     SI111758   0.475   8.537   1.688
11759SI     SI111759   4.810   0.141   2.672
11760SI     SI111760   7.213   8.576   1.937
11761SI     SI111761   8.160   9.317   7.814
11762SI     SI111762   2.180   9.097   4.401
11763SI     SI111763   3.461   9.336   0.512
11764SI     SI111764   8.318   0.393   9.240
11765SI     SI111765   1.314   1.196   6.748
11766SI     SI111766   4.873   8.748   3.030
11767SI     SI111767   6.562   0.948   4.658
11768SI     SI111768   5.427   0.615   0.109
11769SI     SI111769   6.158   9.458   7.196
11770SI     SI111770   3.034   0.075   0.535
11771SI     SI111771   1.176   0.058   7.534
11772SI     SI111772   4.626   8.607   6.886
11773SI     SI111773   4.631   8.691   4.207
11774SI     SI111774   0.343   0.176   1.288
11775SI     SI111775   1.517   8.884   3.040
11776SI     SI111776   0.713   0.526   8.730
11777SI     SI111777   3.370   9.108   3.990
11778SI     SI111778   4.525   0.610   6.353
11779SI     SI111779   9.278   0.638   9.561
11780SI     SI111780   4.305   0.697   6.798
11781SI     SI111781   5.779   0.266   0.250
11782SI     SI111782   9.436   8.493   1.955
11783SI     SI111783   8.145   8.272   3.891
11784SI     SI111784   6.222   0.602   4.722
11785SI     SI111785   3.786   8.578   2.962
11786SI     SI111786   5.726   9.478   9.514
11787SI     SI111787   7.822   8.157   7.275
11788SI     SI111788   7.979   0.428   8.702
11789SI     SI111789   0.504   0.699   4.277
11790SI     SI111790   6.993   0.235   2.835
11791SI     SI111791   1.955   8.835   4.823
11792SI     SI111792   1.789   9.059   7.593
11793SI     SI111793   5.613   0.613   2.498
11794SI     SI111794   4.491   8.426   3.775
11795SI     SI111795   3.993   0.557   3.188
11796SI     SI111796   6.326   9.328   8.884
11797SI     SI111797   1.735   8.801   1.949
11798SI     SI111798   2.735   0.743   6.715
11799SI     SI111799   4.594   8.929   6.491
11800SI     SI111800   3.723   8.994   3.362
11801SI     SI111801   2.654   8.982   8.480
11802SI     SI111802   2.513   8.317   4.556
11803SI     SI111803   3.067   9.349   6.311
11804SI     SI111804   7.783   0.830   2.388
11805SI     SI111805   7.326   9.092   2.692
11806SI     SI111806   5.764   8.877   8.321
11807SI     SI111807   4.023   9.329   0.426
11808SI     SI111808   2.484   9.560   7.837
11809SI     SI111809   0.020   9.298   5.090
11810SI     SI111810   9.494   0.216   8.975
11811SI     SI111811   3.158   0.333   3.438
11812SI     SI111812   3.495   9.338   2.561
11813SI     SI111813   5.218   9.093   4.899
11814SI     SI111814   4.150   8.339   2.751
11815SI     SI111815   8.013   0.496   9.223
11816SI     SI111816   8.358   0.767   2.700
11817SI     SI111817   6.448   9.507   0.038
11818SI     SI111818   9.169   0.624   9.058
11819SI     SI111819   7.634   0.987   3.133
11820SI     SI111820   4.347   9.518   6.743
11821SI     SI111821   2.648   0.515   3.763
11822SI     SI111822   5.308   0.673   8.209
11823SI     SI111823   5.696   8.522   1.851
11824SI     SI111824   8.559   0.274   3.375
11825SI     SI111825   7.098   0.595   8.164
11826SI     SI111826   5.088   0.602   7.307
11827SI     SI111827   0.173   0.722   0.856
11828SI     SI111828   4.391   0.736   8.270
11829SI     SI111829   7.080   0.742   5.197
11830SI     SI111830   2.903   9.132   3.842
11831SI     SI111831   8.894   1.081   6.296
11832SI     SI111832   7.462   9.042   1.566
11833SI     SI111833   0.029   9.031   8.366
11834SI     SI111834   3.389   9.037   3.686
11835SI     SI111835   1.973   8.323   4.126
11836SI     SI111836   4.128   9.344   5.370
11837SI     SI111837   2.307   0.172   0.289
11838SI     SI111838   4.731   9.517   2.219
11839SI     SI111839   0.708   0.391   0.243
11840SI     SI111840   8.117   9.599   4.177
11841SI     SI111841   7.892   0.990   7.982
11842SI     SI111842   5.330   9.003   2.217
11843SI     SI111843   5.058   0.638   1.407
11844SI     SI111844   8.552   0.546   0.096
11845SI     SI111845   6.457   0.641   5.542
11846SI     SI111846   2.717   1.005   2.686
11847SI     SI111847   0.792   9.441   6.984
11848SI     SI111848   5.181   0.524   5.929
11849SI     SI111849   6.334   8.805   5.761
11850SI     SI111850   6.182   0.308   3.341
11851SI     SI111851   0.194   0.250   6.243
11852SI     SI111852   0.037   9.162   0.314
11853SI     SI111853   2.550   9.582   6.738
11854SI     SI111854   8.875   8.910   0.536
11855SI     SI111855   9.023   0.399   8.513
11856SI     SI111856   0.077   8.819   6.930
11857SI     SI111857   8.918   0.230   1.699
11858SI     SI111858   3.608   1.126   5.388
11859SI     SI111859   4.648   9.208   5.447
11860SI     SI111860   1.477   0.388   2.017
11861SI     SI111861   7.363   0.802   7.666
11862SI     SI111862   3.485   8.477   4.189
11863SI     SI111863   7.391   8.340   4.039
11864SI     SI111864   4.344   8.739   7.278
11865SI     SI111865   6.904   1.290   2.180
11866SI     SI111866   1.061   0.727   3.832
11867SI     SI111867   4.346   0.818   5.668
11868SI     SI111868   0.418   9.220   5.499
11869SI     SI111869   5.115   9.541   3.863
11870SI     SI111870   8.693   9.411   1.701
11871SI     SI111871   3.131   0.179   2.355
11872SI     SI111872   7.436   0.096   1.451
11873SI     SI111873   7.563   8.304   7.172
11874SI     SI111874   4.215   8.206   6.928
11875SI     SI111875   1.422   8.381   0.720
11876SI     SI111876   9.014   0.669   4.681
11877SI     SI111877   1.555   8.464   9.347
11878SI     SI111878   8.112   8.476   5.386
11879SI     SI111879   1.809   8.754   4.108
11880SI     SI111880   6.706   9.383   0.459
11881SI     SI111881   8.067   1.060   4.716
11882SI     SI111882   6.670   8.437   0.905
11883SI     SI111883   0.438   9.025   8.241
11884SI     SI111884   2.643   0.271   8.647
11885SI     SI111885   4.498   1.249   6.262
11886SI     SI111886   8.888   9.317   6.864
11887SI     SI111887   7.655   9.100   2.298
11888SI     SI111888   3.863   9.117   5.811
11889SI     SI111889   6.937   9.304   4.111
11890SI     SI111890   8.313   0.209   0.852
11891SI     SI111891   0.249   8.311   9.420
11892SI     SI111892   5.463   1.093   1.782
11893SI     SI111893   0.532   8.347   9.042
11894SI     SI111894   1.777   8.844   2.889
11895SI     SI111895   4.601   0.025   3.970
11896SI     SI111896   9.359   0.106   6.051
11897SI     SI111897   5.015   8.414   2.075
11898SI     SI111898   1.900   1.172   2.094
11899SI     SI111899   0.494   0.293   6.323
11900SI     SI111900   7.204   8.648   6.165
11901SI     SI111901   0.390   0.276   0.835
11902SI     SI111902   5.040   8.907   0.903
11903SI     SI111903   6.631   0.853   2.098
11904SI     SI111904   5.612   0.406   1.195
11905SI     SI111905   3.037   8.964   1.399
11906SI     SI111906   5.871   0.581   9.499
11907SI     SI111907   7.380   0.160   0.799
11908SI     SI111908   5.324   9.091   1.914
11909SI     SI111909   9.580   8.728   6.457
11910SI     SI111910   4.089   0.216   1.285
11911SI     SI111911   3.825   9.304   2.280
11912SI     SI111912   6.095   8.841   1.051
11913SI     SI111913   5.841   9.364   8.383
11914SI     SI111914   9.335   9.112   9.537
11915SI     SI111915   7.569   0.467   3.656
11916SI     SI111916   6.658   0.632   4.332
11917SI     SI111917   8.205   0.277   6.217
11918SI     SI111918   5.261   9.589   7.101
11919SI     SI111919   5.357   8.795   5.201
11920SI     SI111920   0.694   0.871   7.519
11921SI     SI111921   6.841   9.363   2.125
11922SI     SI111922   3.855   0.566   7.811
11923SI     SI111923   2.723   1.220   5.978
11924SI     SI111924   8.197   0.764   3.694
11925SI     SI111925   5.377   9.279   5.352
11926SI     SI111926   2.004   9.359   4.400
11927SI     SI111927   1.116   0.385   0.281
11928SI     SI111928   8.343   9.301   4.838
11929SI     SI111929   7.564   0.566   1.540
11930SI     SI111930   6.211   0.265   8.486
11931SI     SI111931   8.201   0.314   0.198
11932SI     SI111932   5.780   0.191   7.131
11933SI     SI111933   7.627   1.001   2.599
11934SI     SI111934   0.999   1.174   3.988
11935SI     SI111935   1.115   8.430   7.905
11936SI     SI111936   4.159   1.158   9.040
11937SI     SI111937   7.310   0.077   7.257
11938SI     SI111938   1.534   9.200   7.547
11939SI     SI111939   2.552   9.066   9.536
11940SI     SI111940   2.464   1.162   2.046
11941SI     SI111941   4.582   8.769   8.793
11942SI     SI111942   0.862   8.535   3.802
11943SI     SI111943   4.235   0.133   1.758
11944SI     SI111944   5.824   8.639   8.831
11945SI     SI111945   7.830   8.523   0.222
11946SI     SI111946   1.477   9.231   1.368
11947SI     SI111947   0.485   1.216   3.901
11948SI     SI111948   0.277   1.136   7.188
11949SI     SI111949   6.850   9.128   4.733
11950SI     SI111950   8.863   1.014   1.947
11951SI     SI111951   6.733   1.172   7.333
11952SI     SI111952   5.482   8.559   0.943
11953SI     SI111953   8.776   1.094   8.621
11954SI     SI111954   6.592   9.260   7.029
11955SI     SI111955   6.437   8.956   2.959
11956SI     SI111956   3.479   9.256   0.054
11957SI     SI111957   4.047   0.446   7.611
11958SI     SI111958   2.004   0.771   8.748
11959SI     SI111959   1.331   8.531   3.688
11960SI     SI111960   7.986   8.360   7.439
11961SI     SI111961   6.120   8.557   0.244
11962SI     SI111962   8.423   1.261   1.478
11963SI     SI111963   5.796   8.519   7.539
11964SI     SI111964   1.688   8.609   4.528
11965SI     SI111965   1.398   0.255   0.672
11966SI     SI111966   4.700   8.229   3.906
11967SI     SI111967   9.464   8.331   2.714
11968SI     SI111968   6.707   8.919   5.183
11969SI     SI111969   8.945   9.589   7.450
11970SI     SI111970   0.167   0.549   0.157
11971SI     SI111971   0.178   9.241   9.439
11972SI     SI111972   0.387   0.913   2.392
11973SI     SI111973   5.599   9.201   1.798
11974SI     SI111974   9.186   9.442   7.323
11975SI     SI111975   1.177   0.282   3.618
11976SI     SI111976   4.335   9.079   2.901
11977SI     SI111977   1.941   0.766   8.295
11978SI     SI111978   8.547   1.039   1.939
11979SI     SI111979   4.708   8.631   5.523
11980SI     SI111980   2.411   8.880   1.647
11981SI     SI111981   3.343   8.498   7.190
11982SI     SI111982   7.564   8.553   4.747
11983SI     SI111983   4.958   9.541   7.016
11984SI     SI111984   0.957   0.747   4.274
11985SI     SI111985   3.222   8.551   3.615
11986SI     SI111986   4.337   8.722   6.077
11987SI     SI111987   5.892   9.580   7.766
11988SI     SI111988   8.025   9.340   1.309
11989SI     SI111989   7.879   0.601   8.449
11990SI     SI111990   6.822   0.121   7.845
11991SI     SI111991   2.660   8.789   9.551
11992SI     SI111992   5.118   8.607   6.317
11993SI     SI111993   1.929   8.502   2.279
11994SI     SI111994   3.667   0.623   8.488
11995SI     SI111995   1.192   8.917   9.366
11996SI     SI111996   1.749   1.411   6.636
11997SI     SI111997   3.691   1.015   5.124
11998SI     SI111998   8.229   9.598   5.748
11999SI     SI111999   2.685   0.526   6.032
12000SI     SI112000   9.177   8.919   2.680
12001SI     SI112001   6.408   9.588   5.184
12002SI     SI112002   5.734   1.096   4.612
12003SI     SI112003   8.677   0.108   7.946
12004SI     SI112004   5.021   9.357   6.795
12005SI     SI112005   4.402   0.770   7.485
12006SI     SI112006   7.582   0.011   5.935
12007SI     SI112007   5.606   8.726   3.047
12008SI     SI112008   8.334   0.533   5.506
12009SI     SI112009   8.390   8.231   1.102
12010SI     SI112010   7.987   9.399   6.134
12011SI     SI112011   5.610   8.767   0.746
12012SI     SI112012   1.486   8.666   9.108
12013SI     SI112013   9.010   0.545   5.516
12014SI     SI112014   3.589   0.663   2.591
12015SI     SI112015   4.395   0.016   0.833
12016SI     SI112016   6.822   0.217   8.682
12017SI     SI112017   5.893   8.724   0.604
12018SI     SI112018   0.373   0.179   0.007
12019SI     SI112019   6.651   8.430   7.332
12020SI     SI112020   7.443   0.714   4.367
12021SI     SI112021   6.371   8.546   5.320
12022SI     SI112022   8.668   9.587   3.438
12023SI     SI112023   8.295   0.941   6.488
12024SI     SI112024   7.325   9.001   7.357
12025SI     SI112025   1.880   0.848   5.216
12026SI     SI112026   2.129   0.566   9.177
12027SI     SI112027   1.563   0.271   1.212
12028SI     SI112028   9.456   9.602   7.335
12029SI     SI112029   0.748   9.124   3.753
12030SI     SI112030   1.429   8.902   7.260
12031SI     SI112031   1.375   0.987   0.629
12032SI     SI112032   5.840   8.928   6.351
12033SI     SI112033   0.829   9.095   2.870
12034SI     SI112034   5.002   1.303   1.504
12035SI     SI112035   3.867   0.158   6.719
12036SI     SI112036   0.450   8.489   4.026
12037SI     SI112037   7.892   0.755   5.726
12038SI     SI112038   0.125   0.429   7.399
12039SI     SI112039   0.233   0.958   5.150
12040SI     SI112040   6.896   9.552   5.870
12041SI     SI112041   2.605   0.232   0.391
12042SI     SI112042   3.666   1.397   8.468
12043SI     SI112043   2.822   1.020   8.931
12044SI     SI112044   0.185   8.566   7.245
12045SI     SI112045   2.515   0.356   7.165
12046SI     SI112046   8.939   0.497   1.847
12047SI     SI112047   8.995   8.868   4.822
12048SI     SI112048   1.208   9.469   4.580
12049SI     SI112049   4.985   8.506   6.056
12050SI     SI112050   4.168   0.671   9.015
12051SI     SI112051   6.989   0.588   3.673
12052SI     SI112052   9.595   9.211   3.425
12053SI     SI112053   0.706   0.908   5.388
12054SI     SI112054   0.235   0.740   5.597
12055SI     SI112055   1.238   9.528   0.994
12056SI     SI112056   4.207   0.257   0.453
12057SI     SI112057   4.409   9.520   5.914
12058SI     SI112058   0.435   0.961   8.215
12059SI     SI112059   1.100   8.895   6.068
12060SI     SI112060   0.868   0.071   0.820
12061SI     SI112061   4.462   0.153   5.757
12062SI     SI112062   1.056   0.480   8.945
12063SI     SI112063   3.963   9.483   7.716
12064SI     SI112064   2.962   0.872   1.421
12065SI     SI112065   5.070   9.205   7.334
12066SI     SI112066   6.683   0.085   2.971
12067SI     SI112067   3.056   1.093   6.965
12068SI     SI112068   4.250   0.986   4.024
12069SI     SI112069   0.707   8.893   0.412
12070SI     SI112070   8.966   8.231   6.995
12071SI     SI112071   2.506   0.066   6.043
12072SI     SI112072   4.044   9.599   3.003
12073SI     SI112073   2.184   1.113   2.798
12074SI     SI112074   2.516   0.800   5.577
12075SI     SI112075   8.347   0.998   0.266
12076SI     SI112076   0.599   8.205   0.760
12077SI     SI112077   4.180   8.931   4.584
12078SI     SI112078   0.077   0.806   6.770
12079SI     SI112079   6.689   8.555   5.732
12080SI     SI112080   4.391   8.687   2.480
12081SI     SI112081   9.310   0.307   0.487
12082SI     SI112082   7.382   9.245   1.196
12083SI     SI112083   5.037   1.183   2.843
12084SI     SI112084   0.036   9.230   8.868
12085SI     SI112085   0.941   8.294   5.907
12086SI     SI112086   6.378   8.483   2.856
12087SI     SI112087   5.836   0.112   0.503
12088SI     SI112088   6.263   9.276   6.448
12089SI     SI112089   9.420   0.765   8.440
12090SI     SI112090   1.322   8.460   1.911
12091SI     SI112091   8.628   9.082   3.256
12092SI     SI112092   9.023   0.549   1.377
12093SI     SI112093   0.363   0.288   8.439
12094SI     SI112094   3.268   0.316   8.500
12095SI     SI112095   6.853   8.791   5.819
12096SI     SI112096   2.901   1.169   8.664
12097SI     SI112097   7.153   0.806   0.796
12098SI     SI112098   6.577   9.075   2.412
12099SI     SI112099   2.002   0.611   3.353
12100SI     SI112100   2.343   0.963   7.214
12101SI     SI112101   1.234   9.126   1.214
12102SI     SI112102   8.542   9.453   0.589
12103SI     SI112103   3.537   1.115   9.016
12104SI     SI112104   1.217   0.314   9.152
12105SI     SI112105   4.627   0.013   4.667
12106SI     SI112106   8.291   9.504   4.600
12107SI     SI112107   9.423   8.412   2.245
12108SI     SI112108   7.864   1.089   3.565
12109SI     SI112109   1.703   8.821   0.258
12110SI     SI112110   4.931   8.718   9.091
12111SI     SI112111   5.079   0.089   4.773
12112SI     SI112112   7.190   8.406   1.496
12113SI     SI112113   3.178   0.772   7.916
12114SI     SI112114   7.362   0.371   5.671
12115SI     SI112115   0.261   9.533   1.115
12116SI     SI112116   9.379   0.883   9.376
12117SI     SI112117   8.546   1.032   7.499
12118SI     SI112118   0.763   0.152   9.171
12119SI     SI112119   6.243   8.681   2.661
12120SI     SI112120   4.758   0.998   1.296
12121SI     SI112121   6.919   0.661   1.215
12122SI     SI112122   3.206   0.884   0.590
12123SI     SI112123   0.129   9.552   5.242
12124SI     SI112124   4.009   8.622   5.194
12125SI     SI112125   5.597   8.175   3.178
12126SI     SI112126   4.386   0.169   7.743
12127SI     SI112127   4.995   0.187   8.481
12128SI     SI112128   6.979   0.101   9.144
12129SI     SI112129   7.084   9.308   8.409
12130SI     SI112130   0.242   8.558   4.441
12131SI     SI112131   6.530   8.990   6.682
12132SI     SI112132   0.531   0.566   1.444
12133SI     SI112133   2.580   9.178   3.278
12134SI     SI112134   7.970   9.307   0.823
12135SI     SI112135   5.043   1.017   5.677
12136SI     SI112136   5.756   8.495   3.478
12137SI     SI112137   4.400   0.729   5.033
12138SI     SI112138   8.121   0.989   3.129
12139SI     SI112139   0.343   0.223   5.700
12140SI     SI112140   0.594   8.640   0.550
12141SI     SI112141   7.968   9.436   8.485
12142SI     SI112142   8.537   8.530   4.049
12143SI     SI112143   6.769   9.325   5.289
12144SI     SI112144   8.615   8.937   2.099
12145SI     SI112145   9.175   0.224   5.332
12146SI     SI112146   9.373   1.073   1.597
12147SI     SI112147   2.666   0.532   7.718
12148SI     SI112148   3.135   8.696   0.101
12149SI     SI112149   1.149   8.859   1.628
12150SI     SI112150   7.013   1.036   5.194
12151SI     SI112151   6.255   9.412   0.890
12152SI     SI112152   8.410   8.669   6.903
12153SI     SI112153   9.264   0.046   7.861
12154SI     SI112154   4.094   0.503   1.195
12155SI     SI112155   4.616   8.876   4.960
12156SI     SI112156   0.751   0.911   2.022
12157SI     SI112157   0.436   0.851   3.631
12158SI     SI112158   1.794   9.127   5.997
12159SI     SI112159   9.508   0.933   3.627
12160SI     SI112160   8.880   0.547   4.321
12161SI     SI112161   6.887   0.604   6.811
12162SI     SI112162   1.565   0.260   4.008
12163SI     SI112163   3.607   0.080   2.194
12164SI     SI112164   6.993   0.261   6.523
12165SI     SI112165   2.721   8.906   7.208
12166SI     SI112166   0.228   0.662   9.480
12167SI     SI112167   3.592   0.111   5.040
12168SI     SI112168   5.079   8.843   3.482
12169SI     SI112169   8.455   8.683   7.698
12170SI     SI112170   7.778   9.387   5.616
12171SI     SI112171   5.863   8.671   2.059
12172SI     SI112172   2.588   0.215   1.614
12173SI     SI112173   5.838   0.309   9.379
12174SI     SI112174   8.980   0.872   8.681
12175SI     SI112175   4.697   9.437   0.146
12176SI     SI112176   6.614   1.167   6.405
12177SI     SI112177   8.404   0.554   0.564
12178SI     SI112178   4.449   0.354   7.342
12179SI     SI112179   1.631   9.532   4.179
12180SI     SI112180   1.578   8.709   2.673
12181SI     SI112181   0.269   0.560   2.028
12182SI     SI112182   8.130   1.163   2.132
12183SI     SI112183   6.342   0.724   2.844
12184SI     SI112184   9.186   8.685   6.783
12185SI     SI112185   1.706   0.562   3.452
12186SI     SI112186   4.746   8.811   2.099
12187SI     SI112187   7.407   0.322   4.676
12188SI     SI112188   1.840   1.081   4.103
12189SI     SI112189   1.666   0.162   0.780
12190SI     SI112190   1.908   0.538   0.275
12191SI     SI112191   1.331   9.029   7.704
12192SI     SI112192   3.784   1.009   7.121
12193SI     SI112193   6.619   8.606   4.814
12194SI     SI112194   7.695   0.163   0.813
12195SI     SI112195   9.083   0.139   4.171
12196SI     SI112196   0.471   8.693   7.490
12197SI     SI112197   4.177   9.500   8.737
12198SI     SI112198   0.562   1.140   2.055
12199SI     SI112199   6.635   0.021   8.280
12200SI     SI112200   4.391   9.384   0.100
12201SI     SI112201   6.105   8.425   6.761
12202SI     SI112202   4.896   8.905   8.199
12203SI     SI112203   1.860   8.630   6.048
12204SI     SI112204   3.190   9.162   0.105
12205SI     SI112205   4.650   9.590   8.698
12206SI     SI112206   8.496   0.222   7.497
12207SI     SI112207   4.710   0.810   6.784
12208SI     SI112208   7.767   0.529   6.858
12209SI     SI112209   3.200   8.521   5.008
12210SI     SI112210   1.726   0.167   1.691
12211SI     SI112211   2.791   9.135   5.852
12212SI     SI112212   2.280   1.124   8.942
12213SI     SI112213   7.677   9.044   6.622
12214SI     SI112214   5.173   0.830   9.401
12215SI     SI112215   7.209   0.217   3.405
12216SI     SI112216   2.370   0.106   8.976
12217SI     SI112217   6.704   0.014   4.742
12218SI     SI112218   2.193   8.497   2.427
12219SI     SI112219   2.856   1.177   2.473
12220SI     SI112220   4.146   9.004   2.488
12221SI     SI112221   9.558   8.932   8.823
12222SI     SI112222   3.940   0.860   3.185
12223SI     SI112223   5.675   0.471   3.827
12224SI     SI112224   1.507   1.175   2.362
12225SI     SI112225   6.028   9.519   0.372
12226SI     SI112226   2.646   8.717   0.779
12227SI     SI112227   6.109   0.052   8.089
12228SI     SI112228   5.554   0.488   6.431
12229SI     SI112229   7.029   8.775   3.997
12230SI     SI112230   6.092   1.320   6.286
12231SI     SI112231   5.150   8.839   8.896
12232SI     SI112232   9.604   1.191   4.070
12233SI     SI112233   8.629   1.360   1.289
12234SI     SI112234   1.171   8.966   2.373
12235SI     SI112235   3.355   0.365   5.458
12236SI     SI112236   2.211   0.194   3.762
12237SI     SI112237   4.666   9.023   7.812
12238SI     SI112238   7.524   0.942   5.380
12239SI     SI112239   8.879   0.011   6.886
12240SI     SI112240   9.112   8.720   9.474
12241SI     SI112241   4.041   9.298   9.508
12242SI     SI112242   9.064   8.557   6.306
12243SI     SI112243   5.615   0.148   7.386
12244SI     SI112244   0.628   0.318   1.617
12245SI     SI112245   9.464   0.620   0.199
12246SI     SI112246   4.162   0.157   6.809
12247SI     SI112247   0.194   8.929   9.388
12248SI     SI112248   6.112   8.706   8.938
12249SI     SI112249   1.900   0.399   7.956
12250SI     SI112250   2.960   0.144   0.812
12251SI     SI112251   5.219   0.691   3.910
12252SI     SI112252   1.485   8.388   1.556
12253SI     SI112253   1.693   0.061   1.069
12254SI     SI112254   5.883   0.754   2.523
12255SI     SI112255   6.579   0.243   3.687
12256SI     SI112256   4.963   9.546   8.669
12257SI     SI112257   0.559   9.470   8.048
12258SI     SI112258   8.625   0.827   6.999
12259SI     SI112259   6.399   0.419   8.291
12260SI     SI112260   3.304   8.814   1.031
12261SI     SI112261   2.643   9.073   7.850
12262SI     SI112262   9.273   9.267   3.027
12263SI     SI112263   0.608   9.200   3.072
12264SI     SI112264   0.090   8.161   3.757
12265SI     SI112265   2.012   0.561   1.618
12266SI     SI112266   4.323   0.360   5.909
12267SI     SI112267   0.788   9.535   2.024
12268SI     SI112268   3.939   9.556   8.018
12269SI     SI112269   8.461   9.101   4.110
12270SI     SI112270   6.572   8.747   8.228
12271SI     SI112271   9.187   9.098   6.515
12272SI     SI112272   5.656   8.892   4.614
12273SI     SI112273   1.649   9.072   8.351
12274SI     SI112274   2.241   9.094   5.472
12275SI     SI112275   0.770   1.016   9.025
12276SI     SI112276   6.746   1.022   6.862
12277SI     SI112277   3.308   9.298   2.070
12278SI     SI112278   2.963   9.428   7.575
12279SI     SI112279   8.248   8.422   7.299
12280SI     SI112280   5.474   9.112   2.875
12281SI     SI112281   1.699   0.762   0.288
12282SI     SI112282   0.214   8.918   0.332
12283SI     SI112283   0.177   8.404   0.330
12284SI     SI112284   1.186   9.156   3.510
12285SI     SI112285   8.474   0.852   3.361
12286SI     SI112286   2.074   8.986   5.077
12287SI     SI112287   3.462   9.417   9.032
12288SI     SI112288   8.866   0.593   5.085
12289SI     SI112289   1.858   0.164   8.156
12290SI     SI112290   6.151   8.635   8.529
12291SI     SI112291   5.002   0.633   8.173
12292SI     SI112292   1.477   1.079   5.399
12293SI     SI112293   2.435   9.340   6.347
12294SI     SI112294   8.140   0.526   2.998
12295SI     SI112295   0.288   8.656   0.483
12296SI     SI112296   9.444   0.016   3.383
12297SI     SI112297   2.925   0.237   9.102
12298SI     SI112298   3.453   9.000   1.664
12299SI     SI112299   2.487   0.112   7.357
12300SI     SI112300   1.589   9.119   3.203
12301SI     SI112301   6.313   8.476   1.966
12302SI     SI112302   4.826   9.542   3.786
12303SI     SI112303   3.341   9.197   6.032
12304SI     SI112304   3.827   8.967   6.871
12305SI     SI112305   8.238   9.023   3.926
12306SI     SI112306   4.876   1.158   1.968
12307SI     SI112307   7.457   9.291   3.132
12308SI     SI112308   8.240   9.154   0.864
12309SI     SI112309   8.615   0.812   1.485
12310SI     SI112310   3.957   0.370   8.787
12311SI     SI112311   1.958   0.772   1.841
12312SI     SI112312   8.844   9.120   7.340
12313SI     SI112313   0.863   9.528   0.085
12314SI     SI112314   1.940   1.061   4.522
12315SI     SI112315   4.196   1.231   8.275
12316SI     SI112316   9.029   1.275   1.856
12317SI     SI112317   1.790   8.886   6.462
12318SI     SI112318   3.525   1.170   2.644
12319SI     SI112319   6.803   0.681   8.174
12320SI     SI112320   4.378   9.444   9.392
12321SI     SI112321   5.533   1.060   9.177
12322SI     SI112322   5.391   8.821   9.108
12323SI     SI112323   2.218   8.411   4.579
12324SI     SI112324   5.314   0.786   1.457
12325SI     SI112325   9.332   1.060   8.884
12326SI     SI112326   3.732   0.357   9.447
12327SI     SI112327   2.582   8.928   1.260
12328SI     SI112328   8.803   9.521   5.625
12329SI     SI112329   0.774   8.686   6.769
12330SI     SI112330   8.056   8.813   5.698
12331SI     SI112331   2.139   0.011   2.450
12332SI     SI112332   1.663   0.912   0.561
12333SI     SI112333   6.070   1.156   7.820
12334SI     SI112334   5.584   0.643   5.254
12335SI     SI112335   1.166   0.585   7.487
12336SI     SI112336   7.906   8.937   1.922
12337SI     SI112337   7.290   0.280   8.722
12338SI     SI112338   6.392   0.158   8.150
12339SI     SI112339   7.318   0.101   7.793
12340SI     SI112340   8.574   9.096   5.515
12341SI     SI112341   9.251   1.000   8.583
12342SI     SI112342   7.411   0.503   0.389
12343SI     SI112343   1.802   0.935   0.048
12344SI     SI112344   6.721   8.758   6.744
12345SI     SI112345   4.852   0.542   1.208
12346SI     SI112346   9.297   0.424   8.858
12347SI     SI112347   3.075   8.550   9.130
12348SI     SI112348   3.704   0.676   0.581
12349SI     SI112349   4.330   8.651   4.596
12350SI     SI112350   5.439   0.109   0.758
12351SI     SI112351   0.872   1.109   5.561
12352SI     SI112352   4.681   8.354   2.910
12353SI     SI112353   4.555   9.128   6.930
12354SI     SI112354   3.425   8.649   0.015
12355SI     SI112355   2.585   8.441   5.026
12356SI     SI112356   2.670   8.524   3.720
12357SI     SI112357   3.568   0.684   6.261
12358SI     SI112358   7.613   1.040   1.721
12359SI     SI112359   8.178   1.006   7.868
12360SI     SI112360   5.285   0.036   2.211
12361SI     SI112361   7.644   0.461   2.879
12362SI     SI112362   1.456   0.586   0.269
12363SI     SI112363   7.772   9.258   2.819
12364SI     SI112364   0.101   8.469   8.733
12365SI     SI112365   2.456   8.575   7.820
12366SI     SI112366   8.191   8.826   1.286
12367SI     SI112367   7.999   8.820   0.547
12368SI     SI112368   3.341   8.425   0.456
12369SI     SI112369   2.307   1.055   0.973
12370SI     SI112370   7.823   1.068   0.174
12371SI     SI112371   6.852   9.554   3.938
12372SI     SI112372   8.614   1.122   9.189
12373SI     SI112373   1.925   9.462   4.127
12374SI     SI112374   0.870   0.212   5.898
12375SI     SI112375   4.105   0.114   4.073
12376SI     SI112376   6.130   8.325   7.613
12377SI     SI112377   7.543   8.183   6.638
12378SI     SI112378   6.030   8.797   9.434
12379SI     SI112379   5.054   0.351   1.068
12380SI     SI112380   4.631   8.982   7.331
12381SI     SI112381   9.286   8.983   8.678
12382SI     SI112382   7.089   0.110   8.006
12383SI     SI112383   6.823   0.516   5.809
12384SI     SI112384   6.020   1.044   0.957
12385SI     SI112385   4.133   0.700   4.416
12386SI     SI112386   2.598   1.028   5.387
12387SI     SI112387   8.817   9.511   2.203
12388SI     SI112388   8.638   8.254   0.093
12389SI     SI112389   6.050   1.173   3.264
12390SI     SI112390   8.661   0.077   8.520
12391SI     SI112391   7.170   9.401   6.771
12392SI     SI112392   3.654   0.080   7.416
12393SI     SI112393   8.292   0.146   3.307
12394SI     SI112394   7.552   8.760   4.424
12395SI     SI112395   3.619   0.993   4.564
12396SI     SI112396   2.962   8.180   8.283
12397SI     SI112397   5.425   0.115   3.524
12398SI     SI112398   0.272   8.533   5.325
12399SI     SI112399   0.460   0.330   0.411
12400SI     SI112400   9.457   0.745   4.320
12401SI     SI112401   0.441   1.269   1.274
12402SI     SI112402   4.794   0.095   4.207
12403SI     SI112403   2.685   9.495   6.240
12404SI     SI112404   4.537   0.333   7.036
12405SI     SI112405   5.883   9.099   7.473
12406SI     SI112406   7.161   9.325   4.329
12407SI     SI112407   7.299   8.934   4.073
12408SI     SI112408   3.370   9.273   7.261
12409SI     SI112409   9.232   0.958   1.141
12410SI     SI112410   2.708   0.444   4.169
12411SI     SI112411   8.194   8.540   1.966
12412SI     SI112412   3.328   9.069   1.415
12413SI     SI112413   8.787   9.222   0.971
12414SI     SI112414   8.404   1.040   2.215
12415SI     SI112415   2.645   8.736   1.772
12416SI     SI112416   6.565   0.366   4.484
12417SI     SI112417   9.556   0.161   1.618
12418SI     SI112418   9.439   0.539   5.673
12419SI     SI112419   4.884   8.974   6.556
12420SI     SI112420   0.347   9.401   4.098
12421SI     SI112421   8.564   0.922   5.572
12422SI     SI112422   2.402   0.635   0.280
12423SI     SI112423   1.599   0.810   2.099
12424SI     SI112424   5.456   0.133   8.310
12425SI     SI112425   5.841   9.476   4.191
12426SI     SI112426   0.424   1.063   2.673
12427SI     SI112427   6.454   0.007   6.155
12428SI     SI112428   6.429   0.990   1.627
12429SI     SI112429   3.326   8.328   6.931
12430SI     SI112430   5.288   1.164   9.044
12431SI     SI112431   8.133   0.487   4.340
12432SI     SI112432   6.453   8.830   3.952
12433SI     SI112433   4.637   8.652   2.844
12434SI     SI112434   5.059   8.526   4.172
12435SI     SI112435   9.319   0.481   2.501
12436SI     SI112436   1.283   0.098   8.956
12437SI     SI112437   8.928   0.823   1.498
12438SI     SI112438   2.707   0.030   3.566
12439SI     SI112439   4.170   8.784   3.890
12440SI     SI112440   7.622   9.334   5.861
12441SI     SI112441   9.251   1.075   6.777
12442SI     SI112442   7.451   8.453   5.806
12443SI     SI112443   8.518   0.300   5.868
12444SI     SI112444   5.042   0.853   8.894
12445SI     SI112445   6.806   0.611   7.332
12446SI     SI112446   2.222   0.403   9.412
12447SI     SI112447   2.765   8.801   8.262
12448SI     SI112448   2.704   0.310   6.458
12449SI     SI112449   1.613   0.747   4.385
12450SI     SI112450   6.562   0.601   7.184
12451SI     SI112451   9.335   9.025   1.718
12452SI     SI112452   1.163   9.519   1.697
12453SI     SI112453   4.630   9.102   5.730
12454SI     SI112454   7.808   9.400   1.648
12455SI     SI112455   9.327   0.660   0.734
12456SI     SI112456   1.619   0.298   9.536
12457SI     SI112457   7.342   0.163   3.126
12458SI     SI112458   8.184   8.398   7.839
12459SI     SI112459   8.424   8.951   1.850
12460SI     SI112460   6.890   0.514   9.535
12461SI     SI112461   9.151   8.837   9.189
12462SI     SI112462   0.766   8.444   8.155
12463SI     SI112463   1.048   9.522   6.593
12464SI     SI112464   1.076   0.776   3.530
12465SI     SI112465   7.998   0.280   3.726
12466SI     SI112466   6.162   9.518   4.836
12467SI     SI112467   2.275   0.168   8.308
12468SI     SI112468   2.512   0.257   6.880
12469SI     SI112469   4.305   9.533   3.916
12470SI     SI112470   6.763   0.433   7.590
12471SI     SI112471   4.925   9.508   0.907
12472SI     SI112472   7.617   1.235   4.768
12473SI     SI112473   5.595   8.566   9.558
12474SI     SI112474   7.070   9.187   3.715
12475SI     SI112475   4.387   9.557   3.394
12476SI     SI112476   4.962   0.862   7.962
12477SI     SI112477   4.781   9.231   9.254
12478SI     SI112478   2.322   1.002   8.432
12479SI     SI112479   3.491   1.049   8.160
12480SI     SI112480   2.823   0.565   5.346
12481SI     SI112481   8.686   0.193   2.182
12482SI     SI112482   5.156   8.549   4.471
12483SI     SI112483   8.424   8.881   5.044
12484SI     SI112484   5.095   0.749   0.471
12485SI     SI112485   3.552   1.031   6.766
12486SI     SI112486   0.224   9.266   3.863
12487SI     SI112487   2.614   8.593   2.459
12488SI     SI112488   4.222   1.249   8.770
12489SI     SI112489   8.908   0.073   3.014
12490SI     SI112490   0.882   1.306   3.022
12491SI     SI112491   3.720   9.554   5.999
12492SI     SI112492   1.612   0.898   9.145
12493SI     SI112493   1.845   8.976   3.312
12494SI     SI112494   5.837   8.642   8.519
12495SI     SI112495   0.318   9.583   3.117
12496SI     SI112496   7.777   0.507   6.062
12497SI     SI112497   2.855   0.905   0.153
12498SI     SI112498   9.033   0.715   1.109
12499SI     SI112499   2.151   0.184   0.567
12500SI     SI112500   6.412   0.188   7.099
12501SI     SI112501   5.547   9.381   2.521
12502SI     SI112502   5.448   8.721   2.259
12503SI     SI112503   0.548   8.515   6.251
12504SI     SI112504   5.113   9.145   0.019
12505SI     SI112505   8.190   0.221   8.664
12506SI     SI112506   3.623   0.979   7.882
12507SI     SI112507   0.341   0.265   4.917
12508SI     SI112508   7.250   9.207   2.035
12509SI     SI112509   4.019   8.582   8.090
12510SI     SI112510   4.041   9.066   2.955
12511SI     SI112511   1.113   0.834   4.685
12512SI     SI112512   7.440   0.539   3.921
12513SI     SI112513   7.188   0.740   6.397
12514SI     SI112514   5.215   0.528   9.490
12515SI     SI112515   5.260   8.591   2.059
12516SI     SI112516   2.764   1.259   9.466
12517SI     SI112517   1.265   8.326   0.448
12518SI     SI112518   0.100   0.350   8.290
12519SI     SI112519   7.520   1.031   6.302
12520SI     SI112520   7.156   9.318   3.032
12521SI     SI112521   5.398   8.383   5.371
12522SI     SI112522   2.752   0.056   4.420
12523SI     SI112523   6.086   9.196   5.656
12524SI     SI112524   0.650   1.223   0.656
12525SI     SI112525   6.879   9.162   0.406
12526SI     SI112526   5.255   0.426   6.463
12527SI     SI112527   0.078   1.232   2.288
12528SI     SI112528   1.927   8.649   1.565
12529SI     SI112529   5.747   8.623   7.816
12530SI     SI112530   3.715   8.533   3.825
12531SI     SI112531   8.117   8.759   6.179
12532SI     SI112532   1.005   0.994   9.203
12533SI     SI112533   4.685   0.614   7.010
12534SI     SI112534   4.111   9.164   1.936
12535SI     SI112535   8.827   8.555   3.972
12536SI     SI112536   4.416   8.689   0.768
12537SI     SI112537   1.359   8.533   9.587
12538SI     SI112538   8.702   8.502   4.520
12539SI     SI112539   7.927   8.431   4.002
12540SI     SI112540   5.710   0.860   9.012
12541SI     SI112541   3.327   9.234   4.922
12542SI     SI112542   4.851   8.970   1.678
12543SI     SI112543   6.481   9.581   8.996
12544SI     SI112544   1.810   8.393   1.041
12545SI     SI112545   6.756   9.046   0.154
12546SI     SI112546   6.366   8.387   4.104
12547SI     SI112547   3.160   9.409   0.564
12548SI     SI112548   0.582   0.817   0.094
12549SI     SI112549   5.888   8.384   7.148
12550SI     SI112550   2.525   9.450   1.976
12551SI     SI112551   3.956   0.460   2.306
12552SI     SI112552   1.041   9.246   7.000
12553SI     SI112553   9.144   9.399   8.004
12554SI     SI112554   7.165   0.097   1.018
12555SI     SI112555   8.647   8.966   4.306
12556SI     SI112556   8.792   0.730   0.515
12557SI     SI112557   9.060   9.560   0.377
12558SI     SI112558   7.537   8.780   2.963
12559SI     SI112559   8.121   1.107   0.077
12560SI     SI112560   1.927   0.949   1.403
12561SI     SI112561   1.043   0.288   1.268
12562SI     SI112562   8.495   0.749   3.649
12563SI     SI112563   0.299   0.511   7.642
12564SI     SI112564   9.444   0.041   9.386
12565SI     SI112565   7.509   1.220   1.490
12566SI     SI112566   8.509   9.327   6.396
12567SI     SI112567   2.784   9.397   7.206
12568SI     SI112568   6.569   8.635   7.529
12569SI     SI112569   6.956   9.095   7.841
12570SI     SI112570   4.604   1.029   4.368
12571SI     SI112571   3.525   1.232   3.446
12572SI     SI112572   2.560   9.304   7.416
12573SI     SI112573   2.222   8.690   4.726
12574SI     SI112574   9.098   9.584   2.344
12575SI     SI112575   7.881   8.937   6.193
12576SI     SI112576   5.821   9.373   9.102
12577SI     SI112577   7.158   0.773   5.682
12578SI     SI112578   3.126   8.395   6.092
12579SI     SI112579   2.387   8.208   9.295
12580SI     SI112580   8.182   8.769   9.481
12581SI     SI112581   0.115   0.973   7.888
12582SI     SI112582   0.530   0.095   7.382
12583SI     SI112583   0.216   1.121   5.989
12584SI     SI112584   9.123   9.362   1.423
12585SI     SI112585   1.382   8.741   0.961
12586SI     SI112586   2.110   9.339   3.523
12587SI     SI112587   3.525   8.432   5.880
12588SI     SI112588   6.614   1.073   0.591
12589SI     SI112589   7.636   8.953   8.702
12590SI     SI112590   7.582   8.615   6.538
12591SI     SI112591   3.332   9.573   4.595
12592SI     SI112592   5.257   9.460   1.280
12593SI     SI112593   8.195   0.557   6.338
12594SI     SI112594   2.125   0.266   2.934
12595SI     SI112595   3.643   0.506   3.513
12596SI     SI112596   5.035   1.101   8.136
12597SI     SI112597   6.512   0.508   6.222
12598SI     SI112598   8.489   0.756   2.266
12599SI     SI112599   0.023   8.480   3.355
12600SI     SI112600   4.257   0.030   5.378
12601SI     SI112601   0.708   8.780   6.484
12602SI     SI112602   6.350   0.695   6.018
12603SI     SI112603   3.797   8.637   0.269
12604SI     SI112604   8.106   0.222   1.629
12605SI     SI112605   4.061   9.375   8.232
12606SI     SI112606   6.770   8.516   1.451
12607SI     SI112607   1.514   8.912   3.607
12608SI     SI112608   4.698   9.569   0.426
12609SI     SI112609   8.896   9.040   4.167
12610SI     SI112610   4.116   0.270   3.560
12611SI     SI112611   5.052   1.048   7.304
12612SI     SI112612   6.452   0.703   5.137
12613SI     SI112613   2.100   1.057   4.958
12614SI     SI112614   5.687   8.951   7.297
12615SI     SI112615   1.097   0.364   5.743
12616SI     SI112616   4.658   0.684   0.362
12617SI     SI112617   3.514   9.598   2.925
12618SI     SI112618   7.614   8.597   7.572
12619SI     SI112619   2.702   8.738   5.491
12620SI     SI112620   2.144   9.214   8.371
12621SI     SI112621   8.505   1.029   0.746
12622SI     SI112622   5.437   1.026   0.736
12623SI     SI112623   9.108   9.152   5.079
12624SI     SI112624   9.160   9.273   0.310
12625SI     SI112625   3.410   0.843   3.283
12626SI     SI112626   6.048   8.931   9.145
12627SI     SI112627   0.436   1.171   4.318
12628SI     SI112628   3.667   9.227   7.356
12629SI     SI112629   5.622   1.061   8.802
12630SI     SI112630   1.858   9.223   1.713
12631SI     SI112631   0.232   0.352   8.716
12632SI     SI112632   3.578   8.525   2.762
12633SI     SI112633   0.368   9.421   8.503
12634SI     SI112634   1.549   8.942   6.068
12635SI     SI112635   7.430   9.120   8.550
12636SI     SI112636   9.496   0.494   7.901
12637SI     SI112637   7.129   9.111   6.017
12638SI     SI112638   6.355   8.935   3.497
12639SI     SI112639   5.974   1.025   7.577
12640SI     SI112640   2.970   0.447   6.415
12641SI     SI112641   4.500   0.205   0.364
12642SI     SI112642   0.808   1.087   7.343
12643SI     SI112643   3.024   9.359   9.282
12644SI     SI112644   0.061   8.334   6.250
12645SI     SI112645   3.982   8.692   1.952
12646SI     SI112646   5.710   0.032   8.477
12647SI     SI112647   3.907   8.939   8.472
12648SI     SI112648   4.052   0.939   6.132
12649SI     SI112649   4.211   1.005   7.460
12650SI     SI112650   5.329   1.188   2.756
12651SI     SI112651   1.833   0.834   5.928
12652SI     SI112652   0.466   9.214   6.564
12653SI     SI112653   0.330   9.193   8.942
12654SI     SI112654   6.787   0.651   7.890
12655SI     SI112655   2.701   0.327   9.273
12656SI     SI112656   3.059   0.825   8.386
12657SI     SI112657   5.612   9.053   9.551
12658SI     SI112658   3.360   9.211   7.888
12659SI     SI112659   7.293   8.792   9.066
12660SI     SI112660   9.200   8.719   4.455
12661SI     SI112661   4.571   8.442   0.281
12662SI     SI112662   5.970   0.213   2.399
12663SI     SI112663   7.994   1.094   8.496
12664SI     SI112664   9.579   0.133   3.643
12665SI     SI112665   1.891   0.010   0.614
12666SI     SI112666   5.425   1.368   3.990
12667SI     SI112667   0.865   1.363   6.690
12668SI     SI112668   0.364   8.614   5.870
12669SI     SI112669   1.264   9.248   4.359
12670SI     SI112670   9.163   0.494   5.791
12671SI     SI112671   8.870   0.436   9.309
12672SI     SI112672   9.482   1.320   5.069
12673SI     SI112673   9.267   8.928   4.961
12674SI     SI112674   0.584   1.390   5.371
12675SI     SI112675   4.765   0.958   3.517
12676SI     SI112676   8.672   0.728   3.192
12677SI     SI112677   1.411   0.524   9.201
12678SI     SI112678   4.162   0.020   6.262
12679SI     SI112679   5.674   8.724   6.185
12680SI     SI112680   8.616   8.529   5.632
12681SI     SI112681   0.538   9.368   1.115
12682SI     SI112682   6.577   8.666   1.611
12683SI     SI112683   0.505   9.368   9.142
12684SI     SI112684   7.029   8.612   4.257
12685SI     SI112685   6.722   9.483   8.020
12686SI     SI112686   7.573   9.558   9.127
12687SI     SI112687   7.782   9.563   2.898
12688SI     SI112688   5.738   1.206   8.049
12689SI     SI112689   0.699   8.644   3.155
12690SI     SI112690   3.390   0.904   2.573
12691SI     SI112691   8.345   0.845   0.541
12692SI     SI112692   4.363   0.986   0.436
12693SI     SI112693   1.470   0.707   3.357
12694SI     SI112694   3.880   0.098   2.602
12695SI     SI112695   5.870   0.801   8.084
12696SI     SI112696   0.427   8.215   0.312
12697SI     SI112697   4.099   8.848   8.885
12698SI     SI112698   4.510   0.793   2.419
12699SI     SI112699   2.124   0.027   6.598
12700SI     SI112700   0.395   8.667   3.602
12701SI     SI112701   7.311   0.567   0.925
12702SI     SI112702   7.166   9.296   7.898
12703SI     SI112703   2.876   0.738   6.431
12704SI     SI112704   3.623   0.762   1.192
12705SI     SI112705   8.257   0.422   5.948
12706SI     SI112706   5.691   0.238   3.398
12707SI     SI112707   0.970   9.145   4.786
12708SI     SI112708   3.107   8.667   1.498
12709SI     SI112709   3.866   1.154   4.451
12710SI     SI112710   5.019   0.543   6.619
12711SI     SI112711   6.444   0.351   1.935
12712SI     SI112712   1.174   8.842   1.319
12713SI     SI112713   2.622   0.719   2.362
12714SI     SI112714   9.501   0.688   2.363
12715SI     SI112715   7.422   8.730   8.042
12716SI     SI112716   3.161   0.303   6.206
12717SI     SI112717   3.568   8.519   8.271
12718SI     SI112718   8.683   8.848   3.678
12719SI     SI112719   0.115   9.360   1.328
12720SI     SI112720   1.285   9.269   0.138
12721SI     SI112721   4.760   0.958   5.555
12722SI     SI112722   4.043   0.940   4.601
12723SI     SI112723   9.440   0.049   7.041
12724SI     SI112724   8.934   0.772   8.964
12725SI     SI112725   3.864   1.306   4.173
12726SI     SI112726   1.859   0.182   2.825
12727SI     SI112727   1.863   8.602   7.358
12728SI     SI112728   6.641   8.555   2.958
12729SI     SI112729   5.173   0.832   2.923
12730SI     SI112730   1.434   8.801   0.131
12731SI     SI112731   5.198   9.324   8.961
12732SI     SI112732   8.071   0.279   4.829
12733SI     SI112733   1.100   9.384   8.379
12734SI     SI112734   0.793   9.470   1.263
12735SI     SI112735   6.041   1.126   4.191
12736SI     SI112736   5.421   0.947   5.811
12737SI     SI112737   6.548   9.489   3.997
12738SI     SI112738   8.749   9.528   0.370
12739SI     SI112739   3.084   9.151   0.695
12740SI     SI112740   9.577   8.964   6.668
12741SI     SI112741   8.059   0.251   5.135
12742SI     SI112742   6.766   8.816   6.298
12743SI     SI112743   6.170   0.737   6.256
12744SI     SI112744   5.196   0.558   2.822
12745SI     SI112745   7.391   9.557   1.168
12746SI     SI112746   4.117   8.769   9.172
12747SI     SI112747   0.428   9.476   5.314
12748SI     SI112748   5.837   1.112   1.458
12749SI     SI112749   6.697   1.123   0.062
12750SI     SI112750   4.233   9.058   2.205
12751SI     SI112751   6.543   0.991   5.163
12752SI     SI112752   1.300   0.044   6.146
12753SI     SI112753   7.930   8.253   7.737
12754SI     SI112754   3.215   1.297   8.385
12755SI     SI112755   5.221   0.767   9.111
12756SI     SI112756   8.704   9.392   9.044
12757SI     SI112757   9.124   1.271   1.557
12758SI     SI112758   8.768   9.371   9.465
12759SI     SI112759   1.598   0.559   4.005
12760SI     SI112760   3.109   8.458   2.380
12761SI     SI112761   5.863   8.319   4.260
12762SI     SI112762   6.080   0.067   4.203
12763SI     SI112763   0.443   0.440   3.828
12764SI     SI112764   4.097   1.196   0.178
12765SI     SI112765   6.052   8.912   8.186
12766SI     SI112766   5.952   8.900   3.194
12767SI     SI112767   3.385   0.071   6.967
12768SI     SI112768   7.873   8.798   3.327
12769SI     SI112769   5.745   0.538   8.513
12770SI     SI112770   8.457   0.139   1.982
12771SI     SI112771   8.613   9.461   2.723
12772SI     SI112772   3.924   8.522   2.424
12773SI     SI112773   2.770   0.669   5.635
12774SI     SI112774   1.553   0.351   3.265
12775SI     SI112775   2.440   8.805   2.884
12776SI     SI112776   6.655   0.036   5.691
12777SI     SI112777   6.253   9.500   0.590
12778SI     SI112778   0.026   8.927   1.763
12779SI     SI112779   5.292   9.258   4.635
12780SI     SI112780   6.659   1.300   8.015
12781SI     SI112781   5.103   8.707   2.541
12782SI     SI112782   7.956   0.576   4.810
12783SI     SI112783   3.142   0.896   5.877
12784SI     SI112784   0.972   9.046   0.370
12785SI     SI112785   2.810   8.992   3.409
12786SI     SI112786   2.830   9.042   8.998
12787SI     SI112787   0.166   9.366   0.661
12788SI     SI112788   5.994   9.231   3.618
12789SI     SI112789   7.719   9.601   3.393
12790SI     SI112790   5.792   9.551   2.040
12791SI     SI112791   8.979   1.302   2.353
12792SI     SI112792   1.321   9.043   2.863
12793SI     SI112793   1.610   0.835   5.722
12794SI     SI112794   0.433   8.366   3.651
12795SI     SI112795   7.762   9.191   6.073
12796SI     SI112796   1.174   0.774   8.556
12797SI     SI112797   1.030   8.375   5.197
12798SI     SI112798   5.310   9.251   0.640
12799SI     SI112799   0.974   9.232   6.507
12800SI     SI112800   6.454   9.283   3.778
12801SI     SI112801   3.808   0.947   2.292
12802SI     SI112802   5.632   1.160   6.460
12803SI     SI112803   4.548   0.595   4.174
12804SI     SI112804   5.399   1.393   2.531
12805SI     SI112805   2.178   1.107   2.166
12806SI     SI112806   6.491   0.903   0.119
12807SI     SI112807   5.035   1.076   1.702
12808SI     SI112808   8.496   8.467   1.929
12809SI     SI112809   8.775   9.334   8.291
12810SI     SI112810   7.875   9.101   8.783
12811SI     SI112811   8.123   9.148   0.395
12812SI     SI112812   6.026   0.540   8.062
12813SI     SI112813   1.647   9.464   3.463
12814SI     SI112814   3.673   9.441   7.595
12815SI     SI112815   8.210   0.783   8.881
12816SI     SI112816   7.391   8.467   5.243
12817SI     SI112817   1.910   9.220   3.715
12818SI     SI112818   3.643   0.057   9.423
12819SI     SI112819   7.955   0.091   6.224
12820SI     SI112820   7.600   0.295   0.012
12821SI     SI112821   5.257   9.036   1.446
12822SI     SI112822   3.493   8.396   4.471
12823SI     SI112823   8.254   9.234   1.148
12824SI     SI112824   6.155   8.998   5.113
12825SI     SI112825   2.114   0.747   0.248
12826SI     SI112826   9.281   9.357   2.207
12827SI     SI112827   0.041   1.232   7.013
12828SI     SI112828   9.570   9.208   7.608
12829SI     SI112829   5.026   8.808   4.034
12830SI     SI112830   7.037   8.407   0.289
12831SI     SI112831   2.105   1.365   9.348
12832SI     SI112832   7.312   9.425   9.026
12833SI     SI112833   1.395   0.203   6.991
12834SI     SI112834   5.026   9.433   4.600
12835SI     SI112835   4.879   0.999   4.507
12836SI     SI112836   4.615   0.694   5.571
12837SI     SI112837   7.216   0.038   0.369
12838SI     SI112838   7.844   0.557   7.730
12839SI     SI112839   3.156   8.514   0.686
12840SI     SI112840   1.243   0.661   9.414
12841SI     SI112841   9.194   9.023   7.712
12842SI     SI112842   3.655   0.715   8.785
12843SI     SI112843   4.716   8.586   8.587
12844SI     SI112844   8.912   0.058   6.045
12845SI     SI112845   0.412   0.888   6.076
12846SI     SI112846   0.450   0.980   1.709
12847SI     SI112847   2.407   8.426   0.180
12848SI     SI112848   2.629   0.098   1.149
12849SI     SI112849   5.310   0.183   5.227
12850SI     SI112850   2.717   1.148   2.210
12851SI     SI112851   8.540   0.338   5.104
12852SI     SI112852   6.885   9.111   9.138
12853SI     SI112853   5.797   1.014   4.318
12854SI     SI112854   8.257   8.639   4.426
12855SI     SI112855   4.033   0.349   5.039
12856SI     SI112856   3.801   0.248   4.846
12857SI     SI112857   7.024   8.620   7.125
12858SI     SI112858   3.492   8.402   3.662
12859SI     SI112859   6.442   8.397   9.126
12860SI     SI112860   5.850   0.871   4.788
12861SI     SI112861   5.523   0.938   3.155
12862SI     SI112862   9.312   0.155   6.351
12863SI     SI112863   5.916   8.716   4.559
12864SI     SI112864   2.523   8.862   6.699
12865SI     SI112865   6.137   0.593   2.140
12866SI     SI112866   8.704   0.120   7.305
12867SI     SI112867   5.635   8.293   1.006
12868SI     SI112868   8.426   1.232   2.461
12869SI     SI112869   9.119   9.492   2.643
12870SI     SI112870   6.948   9.421   4.784
12871SI     SI112871   7.387   8.706   5.646
12872SI     SI112872   2.461   8.595   1.974
12873SI     SI112873   0.088   1.063   4.601
12874SI     SI112874   3.231   0.215   0.935
12875SI     SI112875   1.423   8.445   2.690
12876SI     SI112876   5.637   0.149   1.607
12877SI     SI112877   5.219   8.322   4.015
12878SI     SI112878   7.824   0.216   5.959
12879SI     SI112879   7.929   0.985   6.123
12880SI     SI112880   1.752   8.708   0.543
12881SI     SI112881   0.635   0.514   4.063
12882SI     SI112882   1.078   0.655   3.056
12883SI     SI112883   2.958   9.423   6.579
12884SI     SI112884   4.763   0.607   9.438
12885SI     SI112885   1.912   9.188   2.198
12886SI     SI112886   6.414   8.641   0.320
12887SI     SI112887   1.855   8.444   3.142
12888SI     SI112888   3.407   8.324   3.954
12889SI     SI112889   7.485   8.658   6.043
12890SI     SI112890   4.250   0.356   9.491
12891SI     SI112891   1.416   8.564   5.857
12892SI     SI112892   1.303   0.646   1.463
12893SI     SI112893   1.675   1.052   1.905
12894SI     SI112894   2.946   0.217   7.538
12895SI     SI112895   7.608   9.556   2.101
12896SI     SI112896   5.527   8.700   1.668
12897SI     SI112897   7.203   1.204   0.073
12898SI     SI112898   9.225   0.363   7.450
12899SI     SI112899   3.220   1.292   4.463
12900SI     SI112900   0.186   8.540   5.632
12901SI     SI112901   7.063   8.688   1.162
12902SI     SI112902   7.273   8.650   1.646
12903SI     SI112903   0.080   1.243   6.489
12904SI     SI112904   3.210   8.915   4.185
12905SI     SI112905   1.575   9.189   0.535
12906SI     SI112906   6.193   0.576   9.143
12907SI     SI112907   0.971   0.420   6.443
12908SI     SI112908   5.321   9.209   4.030
12909SI     SI112909   7.075   0.415   6.942
12910SI     SI112910   5.838   0.205   6.631
12911SI     SI112911   5.930   1.034   7.161
12912SI     SI112912   3.854   8.303   6.256
12913SI     SI112913   0.237   9.274   4.589
12914SI     SI112914   0.514   8.983   5.317
12915SI     SI112915   4.442   0.968   2.954
12916SI     SI112916   6.229   9.193   7.823
12917SI     SI112917   7.983   8.762   0.087
12918SI     SI112918   4.023   0.738   3.669
12919SI     SI112919   3.109   0.832   4.619
12920SI     SI112920   2.787   8.562   0.371
12921SI     SI112921   4.348   8.957   5.101
12922SI     SI112922   6.411   0.655   2.005
12923SI     SI112923   4.012   0.659   6.838
12924SI     SI112924   1.827   1.112   4.808
12925SI     SI112925   5.562   9.322   6.718
12926SI     SI112926   6.504   9.173   7.662
12927SI     SI112927   9.422   9.434   5.924
12928SI     SI112928   7.058   0.110   5.554
12929SI     SI112929   2.558   8.580   8.348
12930SI     SI112930   5.801   1.264   6.226
12931SI     SI112931   2.468   8.565   6.623
12932SI     SI112932   8.796   1.387   6.318
12933SI     SI112933   7.352   0.605   1.758
12934SI     SI112934   4.505   8.505   5.330
12935SI     SI112935   6.086   9.398   8.713
12936SI     SI112936   7.616   0.880   6.566
12937SI     SI112937   1.376   0.633   7.254
12938SI     SI112938   9.314   0.500   8.575
12939SI     SI112939   1.017   0.789   7.116
12940SI     SI112940   1.307   8.875   2.623
12941SI     SI112941   7.296   0.827   9.099
12942SI     SI112942   4.231   8.760   5.621
12943SI     SI112943   3.299   0.488   0.822
12944SI     SI112944   6.447   0.754   7.438
12945SI     SI112945   4.598   1.275   1.998
12946SI     SI112946   1.416   0.698   5.065
12947SI     SI112947   3.526   8.748   5.467
12948SI     SI112948   1.350   9.068   0.695
12949SI     SI112949   8.859   8.770   3.423
12950SI     SI112950   9.541   8.565   7.048
12951SI     SI112951   4.177   0.579   4.879
12952SI     SI112952   1.289   0.910   7.177
12953SI     SI112953   0.925   9.340   6.047
12954SI     SI112954   1.110   8.632   6.242
12955SI     SI112955   3.433   0.436   6.567
12956SI     SI112956   1.869   9.462   8.082
12957SI     SI112957   5.128   8.767   8.602
12958SI     SI112958   7.009   1.041   8.444
12959SI     SI112959   9.105   8.511   5.126
12960SI     SI112960   9.321   0.551   1.425
12961SI     SI112961   2.943   1.096   4.677
12962SI     SI112962   0.574   8.756   8.195
12963SI     SI112963   2.007   0.244   4.975
12964SI     SI112964   2.829   0.495   1.908
12965SI     SI112965   2.284   1.240   7.738
12966SI     SI112966   8.806   9.218   5.697
12967SI     SI112967   1.073   9.180   0.638
12968SI     SI112968   2.072   1.300   6.206
12969SI     SI112969   6.615   9.064   6.396
12970SI     SI112970   4.432   1.304   0.697
12971SI     SI112971   1.276   8.789   8.938
12972SI     SI112972   0.204   8.766   8.720
12973SI     SI112973   6.791   0.414   3.851
12974SI     SI112974   4.225   0.203   8.414
12975SI     SI112975   8.321   0.520   4.543
12976SI     SI112976   8.564   8.419   4.788
12977SI     SI112977   4.839   8.917   1.147
12978SI     SI112978   0.546   0.581   6.428
12979SI     SI112979   0.259   0.232   9.321
12980SI     SI112980   6.957   1.191   4.372
12981SI     SI112981   0.167   9.209   6.617
12982SI     SI112982   2.094   8.327   0.466
12983SI     SI112983   1.572   1.136   0.125
12984SI     SI112984   7.118   0.403   1.728
12985SI     SI112985   4.865   0.200   0.879
12986SI     SI112986   5.855   0.534   4.273
12987SI     SI112987   2.454   1.146   0.715
12988SI     SI112988   2.942   0.403   2.370
12989SI     SI112989   2.742   9.008   6.558
12990SI     SI112990   8.917   9.007   6.398
12991SI     SI112991   7.095   0.738   8.435
12992SI     SI112992   2.231   1.337   3.298
12993SI     SI112993   5.218   0.350   4.308
12994SI     SI112994   5.860   0.797   1.504
12995SI     SI112995   7.514   0.612   4.647
12996SI     SI112996   2.175   0.596   8.436
12997SI     SI112997   5.864   8.415   0.575
12998SI     SI112998   8.492   8.862   8.282
12999SI     SI112999   3.722   9.239   6.930
13000SI     SI113000   0.630   8.786   9.314
13001SI     SI113001   3.661   9.575   0.568
13002SI     SI113002   4.649   8.550   2.547
13003SI     SI113003   7.051   9.131   7.427
13004SI     SI113004   4.570   8.598   7.429
13005SI     SI113005   4.295   9.194   0.523
13006SI     SI113006   4.556   0.125   4.398
13007SI     SI113007   0.479   8.371   8.177
13008SI     SI113008   9.103   8.967   0.708
13009SI     SI113009   1.352   0.947   5.843
13010SI     SI113010   2.466   8.886   5.377
13011SI     SI113011   2.535   9.352   4.281
13012SI     SI113012   4.416   8.695   1.069
13013SI     SI113013   0.689   0.546   4.684
13014SI     SI113014   3.825   9.097   0.445
13015SI     SI113015   0.713   9.050   4.055
13016SI     SI113016   8.736   8.803   5.971
13017SI     SI113017   2.060   9.117   9.391
13018SI     SI113018   4.598   0.934   8.326
13019SI     SI113019   7.289   9.372   0.286
13020SI     SI113020   4.467   8.991   0.356
13021SI     SI113021   7.995   8.852   7.013
13022SI     SI113022   7.936   9.383   7.115
13023SI     SI113023   8.595   9.076   5.211
13024SI     SI113024   6.639   1.044   1.854
13025SI     SI113025   3.780   9.413   2.692
13026SI     SI113026   0.211   9.240   2.431
13027SI     SI113027   7.362   8.624   0.872
13028SI     SI113028   5.180   0.315   2.986
13029SI     SI113029   7.759   0.787   7.231
13030SI     SI113030   1.733   8.800   9.158
13031SI     SI113031   3.887   9.343   4.336
13032SI     SI113032   9.238   9.133   9.254
13033SI     SI113033   2.162   9.224   1.164
13034SI     SI113034   1.528   9.425   6.155
13035SI     SI113035   0.261   8.648   6.522
13036SI     SI113036   2.181   0.544   7.935
13037SI     SI113037   4.166   8.517   0.140
13038SI     SI113038   0.055   9.538   2.727
13039SI     SI113039   1.993   0.058   1.065
13040SI     SI113040   1.854   0.260   0.133
13041SI     SI113041   2.116   9.597   5.439
13042SI     SI113042   7.481   0.714   1.272
13043SI     SI113043   2.879   9.193   6.763
13044SI     SI113044   1.541   0.429   5.143
13045SI     SI113045   4.278   0.916   9.163
13046SI     SI113046   1.305   0.131   2.309
13047SI     SI113047   3.114   0.713   4.902
13048SI     SI113048   6.404   8.725   0.608
13049SI     SI113049   5.778   0.768   0.518
13050SI     SI113050   1.698   1.108   5.591
13051SI     SI113051   3.691   8.986   3.676
13052SI     SI113052   7.798   8.442   5.442
13053SI     SI113053   1.878   8.374   8.134
13054SI     SI113054   2.249   0.377   6.319
13055SI     SI113055   1.890   0.490   8.762
13056SI     SI113056   7.908   1.217   6.582
13057SI     SI113057   0.910   8.874   2.297
13058SI     SI113058   9.421   9.145   6.314
13059SI     SI113059   3.149   0.794   7.022
13060SI     SI113060   5.424   8.377   1.938
13061SI     SI113061   2.247   0.552   4.486
13062SI     SI113062   4.827   0.536   2.473
13063SI     SI113063   5.566   9.445   1.613
13064SI     SI113064   4.432   8.642   5.813
13065SI     SI113065   8.505   9.552   3.180
13066SI     SI113066   8.049   0.169   8.095
13067SI     SI113067   9.150   9.531   3.446
13068SI     SI113068   6.569   8.489   8.037
13069SI     SI113069   5.107   8.402   0.660
13070SI     SI113070   6.845   0.899   7.429
13071SI     SI113071   8.141   9.410   3.151
13072SI     SI113072   2.963   9.134   9.497
13073SI     SI113073   2.432   8.624   7.380
13074SI     SI113074   8.070   8.368   4.841
13075SI     SI113075   8.146   0.153   0.586
13076SI     SI113076   0.072   0.179   2.543
13077SI     SI113077   3.587   0.247   8.146
13078SI     SI113078   6.270   8.706   8.270
13079SI     SI113079   4.455   0.697   3.346
13080SI     SI113080   3.814   0.946   5.961
13081SI     SI113081   6.952   0.618   2.711
13082SI     SI113082   0.336   8.784   4.868
13083SI     SI113083   8.499   0.468   0.835
13084SI     SI113084   7.343   9.081   0.930
13085SI     SI113085   4.706   0.378   3.021
13086SI     SI113086   9.475   8.551   8.565
13087SI     SI113087   3.946   0.618   4.179
13088SI     SI113088   7.113   8.679   8.116
13089SI     SI113089   5.319   0.193   7.329
13090SI     SI113090   3.970   8.907   0.265
13091SI     SI113091   1.384   0.691   4.187
13092SI     SI113092   6.941   9.218   1.096
13093SI     SI113093   8.124   0.440   0.459
13094SI     SI113094   5.412   9.349   5.807
13095SI     SI113095   5.557   0.964   0.454
13096SI     SI113096   6.313   8.357   3.810
13097SI     SI113097   7.573   8.486   0.691
13098SI     SI113098   6.431   0.279   9.350
13099SI     SI113099   7.064   0.344   5.741
13100SI     SI113100   8.904   1.077   3.549
13101SI     SI113101   7.351   0.260   0.189
13102SI     SI113102   5.881   8.806   2.910
13103SI     SI113103   1.516   8.661   5.048
13104SI     SI113104   0.924   0.118   6.409
13105SI     SI113105   3.796   0.887   2.900
13106SI     SI113106   6.081   0.317   6.077
13107SI     SI113107   2.065   0.006   7.632
13108SI     SI113108   5.730   9.053   7.814
13109SI     SI113109   2.301   0.679   1.566
13110SI     SI113110   1.984   8.627   2.959
13111SI     SI113111   1.814   0.129   3.878
13112SI     SI113112   1.245   1.137   9.342
13113SI     SI113113   5.150   9.117   5.503
13114SI     SI113114   6.594   0.914   5.624
13115SI     SI113115   3.319   0.200   5.730
13116SI     SI113116   9.174   8.842   3.830
13117SI     SI113117   0.316   8.932   0.065
13118SI     SI113118   2.303   9.198   5.040
13119SI     SI113119   2.102   8.774   3.993
13120SI     SI113120   5.642   8.871   8.930
13121SI     SI113121   6.541   9.465   0.976
13122SI     SI113122   3.155   9.534   5.387
13123SI     SI113123   0.875   0.614   7.493
13124SI     SI113124   1.935   1.033   6.156
13125SI     SI113125   9.434   0.280   2.108
13126SI     SI113126   1.583   0.813   5.290
13127SI     SI113127   8.347   9.272   7.087
13128SI     SI113128   9.181   8.980   4.280
13129SI     SI113129   1.619   0.995   8.590
13130SI     SI113130   4.983   0.305   2.344
13131SI     SI113131   0.398   0.763   8.448
13132SI     SI113132   1.464   0.468   7.770
13133SI     SI113133   4.768   0.345   9.592
13134SI     SI113134   7.849   9.542   0.367
13135SI     SI113135   3.357   1.085   5.786
13136SI     SI113136   2.825   1.257   7.075
13137SI     SI113137   4.031   0.258   1.585
13138SI     SI113138   8.121   1.060   3.756
13139SI     SI113139   3.447   8.686   4.516
13140SI     SI113140   5.671   1.349   9.153
13141SI     SI113141   3.683   0.849   5.521
13142SI     SI113142   1.853   0.935   8.968
13143SI     SI113143   3.680   0.495   4.301
13144SI     SI113144   6.627   9.023   3.803
13145SI     SI113145   7.009   0.538   7.740
13146SI     SI113146   1.249   8.974   5.589
13147SI     SI113147   5.891   1.406   3.160
13148SI     SI113148   4.835   0.292   6.668
13149SI     SI113149   2.490   1.381   3.464
13150SI     SI113150   5.695   9.039   0.824
13151SI     SI113151   4.961   0.004   3.311
13152SI     SI113152   9.352   0.022   4.069
13153SI     SI113153   8.524   8.458   9.349
13154SI     SI113154   5.261   0.701   4.564
13155SI     SI113155   6.810   9.308   8.901
13156SI     SI113156   2.650   9.548   2.527
13157SI     SI113157   4.288   0.887   0.860
13158SI     SI113158   2.746   0.689   2.642
13159SI     SI113159   3.451   9.291   5.631
13160SI     SI113160   6.954   8.755   9.362
13161SI     SI113161   4.839   0.023   1.338
13162SI     SI113162   4.718   0.225   5.899
13163SI     SI113163   1.402   9.046   9.566
13164SI     SI113164   6.806   0.831   6.119
13165SI     SI113165   6.648   8.535   8.710
13166SI     SI113166   0.918   9.390   7.362
13167SI     SI113167   2.423   0.211   9.257
13168SI     SI113168   3.897   0.566   8.305
13169SI     SI113169   7.470   9.244   7.845
13170SI     SI113170   7.161   9.534   5.211
13171SI     SI113171   4.510   8.578   7.997
13172SI     SI113172   6.195   8.964   2.780
13173SI     SI113173   6.992   0.992   3.296
13174SI     SI113174   0.507   0.654   4.925
13175SI     SI113175   0.500   9.599   2.675
13176SI     SI113176   0.035   9.032   2.852
13177SI     SI113177   3.332   9.215   8.616
13178SI     SI113178   2.344   8.760   1.384
13179SI     SI113179   5.619   9.241   0.600
13180SI     SI113180   2.736   9.255   5.362
13181SI     SI113181   8.235   0.364   1.952
13182SI     SI113182   8.755   0.683   5.612
13183SI     SI113183   7.636   8.358   7.781
13184SI     SI113184   3.490   9.499   4.852
13185SI     SI113185   3.359   0.907   1.677
13186SI     SI113186   1.473   1.306   1.504
13187SI     SI113187   4.019   1.083   6.744
13188SI     SI113188   9.520   9.390   3.184
13189SI     SI113189   4.685   1.120   6.794
13190SI     SI113190   1.033   9.349   9.295
13191SI     SI113191   0.965   9.093   9.465
13192SI     SI113192   5.337   0.700   8.706
13193SI     SI113193   6.053   0.641   1.314
13194SI     SI113194   6.621   8.619   5.129
13195SI     SI113195   4.127   8.790   8.304
13196SI     SI113196   8.344   1.261   7.475
13197SI     SI113197   7.381   1.135   6.861
13198SI     SI113198   0.438   8.798   6.333
13199SI     SI113199   8.038   9.339   9.319
13200SI     SI113200   6.726   0.103   4.436
13201SI     SI113201   8.673   9.342   0.125
13202SI     SI113202   4.429   8.388   3.470
13203SI     SI113203   0.912   9.119   0.893
13204SI     SI113204   4.364   0.851   0.005
13205SI     SI113205   3.887   8.572   9.599
13206SI     SI113206   4.905   8.306   8.255
13207SI     SI113207   1.374   9.532   9.590
13208SI     SI113208   8.867   8.823   7.422
13209SI     SI113209   4.097   9.232   3.401
13210SI     SI113210   9.251   1.326   4.431
13211SI     SI113211   4.722   0.528   4.640
13212SI     SI113212   8.703   8.271   8.847
13213SI     SI113213   7.424   8.966   4.865
13214SI     SI113214   0.050   8.461   7.655
13215SI     SI113215   6.188   0.416   2.386
13216SI     SI113216   7.781   9.413   8.237
13217SI     SI113217   3.656   9.496   8.789
13218SI     SI113218   6.220   9.246   4.178
13219SI     SI113219   3.494   0.947   1.402
13220SI     SI113220   2.760   0.575   4.435
13221SI     SI113221   2.451   8.441   3.919
13222SI     SI113222   0.666   9.032   9.484
13223SI     SI113223   9.079   0.175   7.655
13224SI     SI113224   8.180   8.395   2.588
13225SI     SI113225   1.162   9.514   5.108
13226SI     SI113226   8.327   8.510   9.581
13227SI     SI113227   0.363   8.657   1.931
13228SI     SI113228   7.287   8.659   8.592
13229SI     SI113229   5.507   1.067   7.885
13230SI     SI113230   7.634   0.721   5.888
13231SI     SI113231   6.627   8.765   4.565
13232SI     SI113232   3.671   9.517   3.466
13233SI     SI113233   5.782   1.139   1.140
13234SI     SI113234   4.789   0.544   8.655
13235SI     SI113235   9.503   0.566   3.256
13236SI     SI113236   5.586   9.536   8.752
13237SI     SI113237   2.565   1.148   9.050
13238SI     SI113238   9.030   8.630   7.601
13239SI     SI113239   7.522   0.370   2.307
13240SI     SI113240   5.203   8.638   0.189
13241SI     SI113241   8.452   8.456   5.888
13242SI     SI113242   1.499   9.182   2.131
13243SI     SI113243   9.376   0.824   9.064
13244SI     SI113244   4.108   0.418   4.017
13245SI     SI113245   6.071   9.185   7.245
13246SI     SI113246   5.653   0.294   6.879
13247SI     SI113247   6.274   0.091   7.352
13248SI     SI113248   6.122   0.327   5.763
13249SI     SI113249   4.842   0.147   3.550
13250SI     SI113250   7.679   0.231   4.167
13251SI     SI113251   5.740   1.134   1.923
13252SI     SI113252   9.028   9.506   8.282
13253SI     SI113253   5.390   1.044   1.290
13254SI     SI113254   2.089   8.367   3.338
13255SI     SI113255   6.677   9.471   7.214
13256SI     SI113256   6.388   1.405   5.952
13257SI     SI113257   5.351   0.146   6.564
13258SI     SI113258   4.390   8.967   8.267
13259SI     SI113259   9.417   9.392   2.613
13260SI     SI113260   8.052   0.623   8.189
13261SI     SI113261   2.596   0.815   7.633
13262SI     SI113262   8.195   9.457   8.896
13263SI     SI113263   2.121   8.207   5.936
13264SI     SI113264   6.003   0.693   1.771
13265SI     SI113265   5.580   0.663   1.568
13266SI     SI113266   9.568   0.940   5.921
13267SI     SI113267   1.120   8.709   3.829
13268SI     SI113268   2.066   0.571   1.193
13269SI     SI113269   6.868   9.051   5.396
13270SI     SI113270   6.859   9.329   9.346
13271SI     SI113271   5.110   0.016   8.941
13272SI     SI113272   1.744   0.370   7.688
13273SI     SI113273   0.902   8.925   4.469
13274SI     SI113274   5.997   8.494   5.022
13275SI     SI113275   3.736   8.696   8.096
13276SI     SI113276   7.521   8.983   6.878
13277SI     SI113277   6.612   9.438   7.525
13278SI     SI113278   3.196   0.928   5.117
13279SI     SI113279   7.204   8.266   8.366
13280SI     SI113280   4.565   0.252   0.951
13281SI     SI113281   7.274   8.196   3.579
13282SI     SI113282   4.374   0.175   2.415
13283SI     SI113283   9.417   9.488   0.974
13284SI     SI113284   1.607   9.524   5.877
13285SI     SI113285   8.198   8.872   8.687
13286SI     SI113286   7.584   8.445   8.993
13287SI     SI113287   1.745   8.678   3.319
13288SI     SI113288   0.082   9.577   0.855
13289SI     SI113289   5.790   0.453   8.812
13290SI     SI113290   7.532   8.929   2.513
13291SI     SI113291   7.576   8.428   2.234
13292SI     SI113292   2.139   0.903   0.498
13293SI     SI113293   0.886   9.504   1.559
13294SI     SI113294   1.122   9.403   3.664
13295SI     SI113295   6.168   1.082   2.293
13296SI     SI113296   2.764   9.330   9.116
13297SI     SI113297   8.139   0.483   7.715
13298SI     SI113298   3.449   0.088   9.173
13299SI     SI113299   7.823   8.637   8.932
13300SI     SI113300   5.963   9.204   5.235
13301SI     SI113301   7.047   8.364   2.909
13302SI     SI113302   6.147   0.850   8.455
13303SI     SI113303   1.287   1.157   6.433
13304SI     SI113304   6.443   1.040   3.175
13305SI     SI113305   3.458   8.924   5.967
13306SI     SI113306   1.683   0.535   2.443
13307SI     SI113307   4.044   8.841   0.747
13308SI     SI113308   3.177   0.531   2.526
13309SI     SI113309   7.747   8.301   3.627
13310SI     SI113310   7.109   9.053   2.873
13311SI     SI113311   7.091   9.208   6.310
13312SI     SI113312   3.713   0.855   7.369
13313SI     SI113313   4.882   9.523   2.860
13314SI     SI113314   2.738   0.021   6.514
13315SI     SI113315   2.954   1.021   9.392
13316SI     SI113316   1.824   9.206   6.497
13317SI     SI113317   6.599   8.470   6.753
13318SI     SI113318   4.943   0.952   2.208
13319SI     SI113319   7.613   0.936   3.684
13320SI     SI113320   3.459   8.557   8.935
13321SI     SI113321   6.596   8.726   0.853
13322SI     SI113322   5.079   0.486   9.048
13323SI     SI113323   7.441   9.466   4.727
13324SI     SI113324   8.186   8.748   0.313
13325SI     SI113325   0.745   9.256   2.467
13326SI     SI113326   3.850   0.388   8.066
13327SI     SI113327   2.042   0.872   9.207
13328SI     SI113328   5.141   1.007   5.957
13329SI     SI113329   2.076   8.413   1.193
13330SI     SI113330   6.640   9.579   6.681
13331SI     SI113331   7.025   1.006   2.249
13332SI     SI113332   0.630   8.314   4.802
13333SI     SI113333   0.675   9.178   5.670
13334SI     SI113334   6.501   9.038   5.713
13335SI     SI113335   6.907   8.530   2.292
13336SI     SI113336   0.222   0.599   1.480
13337SI     SI113337   8.911   1.222   4.758
13338SI     SI113338   8.112   0.077   8.398
13339SI     SI113339   3.350   9.310   3.243
13340SI     SI113340   9.581   0.606   3.887
13341SI     SI113341   5.099   8.880   7.640
13342SI     SI113342   5.165   0.071   6.108
13343SI     SI113343   3.112   9.567   5.695
13344SI     SI113344   0.109   0.785   8.560
13345SI     SI113345   8.136   1.292   1.178
13346SI     SI113346   7.501   0.936   8.499
13347SI     SI113347   2.166   0.819   2.906
13348SI     SI113348   2.543   1.208   1.754
13349SI     SI113349   6.187   0.790   1.065
13350SI     SI113350   2.605   0.409   9.554
13351SI     SI113351   0.048   9.010   5.209
13352SI     SI113352   8.015   8.216   8.265
13353SI     SI113353   8.639   8.877   9.036
13354SI     SI113354   4.394   0.143   6.128
13355SI     SI113355   6.156   0.922   5.701
13356SI     SI113356   2.273   0.829   8.868
13357SI     SI113357   0.164   1.172   0.514
13358SI     SI113358   0.995   0.069   4.493
13359SI     SI113359   3.552   9.550   1.694
13360SI     SI113360   2.902   0.614   6.939
13361SI     SI113361   3.728   9.110   0.887
13362SI     SI113362   0.932   0.914   2.582
13363SI     SI113363   6.269   1.182   5.606
13364SI     SI113364   9.138   0.114   6.990
13365SI     SI113365   0.717   8.644   0.814
13366SI     SI113366   7.100   0.555   7.226
13367SI     SI113367   7.780   9.000   4.009
13368SI     SI113368   3.658   0.159   3.274
13369SI     SI113369   3.361   8.599   5.676
13370SI     SI113370   1.026   9.323   1.107
13371SI     SI113371   2.591   8.883   9.100
13372SI     SI113372   4.285   1.052   6.600
13373SI     SI113373   4.337   1.124   3.417
13374SI     SI113374   5.022   8.401   0.106
13375SI     SI113375   6.057   1.124   0.057
13376SI     SI113376   2.499   0.332   2.691
13377SI     SI113377   3.341   8.682   2.842
13378SI     SI113378   6.610   0.220   2.161
13379SI     SI113379   5.247   0.412   3.267
13380SI     SI113380   7.144   8.372   2.428
13381SI     SI113381   3.416   8.439   6.176
13382SI     SI113382   2.889   9.127   1.626
13383SI     SI113383   1.771   0.465   2.741
13384SI     SI113384   1.157   0.755   5.176
13385SI     SI113385   8.718   0.284   4.393
13386SI     SI113386   3.357   8.756   6.667
13387SI     SI113387   3.622   0.811   3.494
13388SI     SI113388   0.805   9.455   9.114
13389SI     SI113389   7.632   8.949   3.466
13390SI     SI113390   0.239   9.239   0.111
13391SI     SI113391   4.463   9.266   7.871
13392SI     SI113392   8.949   1.003   9.478
13393SI     SI113393   2.430   0.945   4.601
13394SI     SI113394   1.019   0.552   0.858
13395SI     SI113395   3.390   9.594   7.269
13396SI     SI113396   3.304   0.923   2.279
13397SI     SI113397   3.058   0.589   4.441
13398SI     SI113398   0.652   1.139   3.039
13399SI     SI113399   7.441   9.340   2.251
13400SI     SI113400   9.121   9.097   2.303
13401SI     SI113401   7.397   0.210   3.650
13402SI     SI113402   6.631   0.488   0.296
13403SI     SI113403   4.730   8.421   4.801
13404SI     SI113404   2.390   0.760   8.596
13405SI     SI113405   4.673   9.353   5.919
13406SI     SI113406   2.739   0.683   1.443
13407SI     SI113407   3.286   1.001   0.868
13408SI     SI113408   4.027   1.027   8.820
13409SI     SI113409   8.381   0.077   1.290
13410SI     SI113410   3.251   0.732   7.308
13411SI     SI113411   7.132   1.037   2.543
13412SI     SI113412   1.691   0.869   6.840
13413SI     SI113413   0.056   0.435   5.262
13414SI     SI113414   6.659   0.830   7.662
13415SI     SI113415   6.906   0.929   9.537
13416SI     SI113416   1.280   9.413   7.128
13417SI     SI113417   2.169   8.796   3.704
13418SI     SI113418   3.577   0.675   4.542
13419SI     SI113419   1.645   8.850   6.734
13420SI     SI113420   2.199   0.760   7.015
13421SI     SI113421   1.407   0.036   5.721
13422SI     SI113422   5.071   8.915   6.312
13423SI     SI113423   0.551   0.307   9.280
13424SI     SI113424   7.642   0.223   9.158
13425SI     SI113425   7.947   0.278   6.929
13426SI     SI113426   2.571   0.899   0.247
13427SI     SI113427   1.345   0.374   1.601
13428SI     SI113428   1.557   0.447   6.901
13429SI     SI113429   4.119   9.060   6.777
13430SI     SI113430   5.529   9.002   8.695
13431SI     SI113431   9.125   0.379   4.634
13432SI     SI113432   5.870   8.520   9.411
13433SI     SI113433   1.829   0.654   1.383
13434SI     SI113434   2.301   8.567   4.996
13435SI     SI113435   2.156   8.672   7.748
13436SI     SI113436   5.183   9.531   0.722
13437SI     SI113437   6.814   9.341   0.057
13438SI     SI113438   5.438   0.025   5.946
13439SI     SI113439   5.622   8.424   8.914
13440SI     SI113440   4.558   8.853   7.072
13441SI     SI113441   1.264   8.427   5.619
13442SI     SI113442   6.618   9.366   3.534
13443SI     SI113443   0.741   9.246   3.352
13444SI     SI113444   6.469   8.959   1.026
13445SI     SI113445   3.687   1.092   1.609
13446SI     SI113446   3.399   0.873   0.337
13447SI     SI113447   6.471   9.486   4.888
13448SI     SI113448   4.224   8.788   6.831
13449SI     SI113449   9.023   8.519   3.480
13450SI     SI113450   2.422   0.430   5.181
13451SI     SI113451   6.836   0.207   7.409
13452SI     SI113452   9.033   0.795   1.794
13453SI     SI113453   8.541   1.244   3.696
13454SI     SI113454   4.859   0.237   1.830
13455SI     SI113455   3.474   9.450   6.174
13456SI     SI113456   4.826   0.244   4.736
13457SI     SI113457   9.214   9.141   1.218
13458SI     SI113458   7.826   1.006   9.040
13459SI     SI113459   1.272   0.449   3.152
13460SI     SI113460   9.054   8.991   3.337
13461SI     SI113461   2.216   9.523   4.534
13462SI     SI113462   3.514   9.156   1.924
13463SI     SI113463   6.966   8.870   8.619
13464SI     SI113464   0.159   0.764   3.684
13465SI     SI113465   4.561   9.305   3.437
13466SI     SI113466   2.548   0.490   6.673
13467SI     SI113467   9.185   0.475   9.318
13468SI     SI113468   0.116   8.388   6.768
13469SI     SI113469   2.610   1.110   7.256
13470SI     SI113470   1.387   0.880   2.310
13471SI     SI113471   5.124   9.535   0.201
13472SI     SI113472   6.588   9.528   1.272
13473SI     SI113473   1.856   9.294   8.339
13474SI     SI113474   3.845   8.695   1.462
13475SI     SI113475   2.160   0.854   4.450
13476SI     SI113476   3.569   8.568   7.873
13477SI     SI113477   5.491   8.484   7.490
13478SI     SI113478   1.624   8.445   3.763
13479SI     SI113479   5.039   9.357   2.652
13480SI     SI113480   1.768   8.184   6.272
13481SI     SI113481   0.110   8.707   7.845
13482SI     SI113482   0.583   9.538   0.006
13483SI     SI113483   6.410   8.269   0.927
13484SI     SI113484   4.304   1.003   2.332
13485SI     SI113485   6.934   9.586   8.860
13486SI     SI113486   0.549   9.061   3.531
13487SI     SI113487   1.722   8.622   8.257
13488SI     SI113488   3.280   8.453   3.056
13489SI     SI113489   9.574   0.060   5.497
13490SI     SI113490   2.074   9.389   7.852
13491SI     SI113491   0.891   0.753   3.296
13492SI     SI113492   9.369   0.838   7.230
13493SI     SI113493   9.467   0.440   6.756
13494SI     SI113494   6.565   0.217   8.847
13495SI     SI113495   0.393   0.940   5.424
13496SI     SI113496   0.238   8.363   6.487
13497SI     SI113497   6.772   0.395   1.205
13498SI     SI113498   5.722   9.301   3.712
13499SI     SI113499   8.732   1.252   2.519
13500SI     SI113500   6.429   9.548   6.457
13501SI     SI113501   2.781   0.455   8.444
13502SI     SI113502   3.281   8.979   8.407
13503SI     SI113503   8.385   0.558   1.108
13504SI     SI113504   0.407   1.286   3.380
13505SI     SI113505   0.922   9.357   5.728
13506SI     SI113506   9.259   0.003   5.141
13507SI     SI113507   6.899   8.478   5.518
13508SI     SI113508   8.556   0.346   4.661
13509SI     SI113509   0.933   8.842   7.396
13510SI     SI113510   9.227   0.242   8.108
13511SI     SI113511   3.082   9.566   4.786
13512SI     SI113512   9.215   1.143   9.465
13513SI     SI113513   7.233   0.749   0.297
13514SI     SI113514   0.678   0.807   1.596
13515SI     SI113515   9.358   0.297   3.263
13516SI     SI113516   7.063   0.395   9.090
13517SI     SI113517   3.373   0.729   1.008
13518SI     SI113518   2.002   1.120   5.531
13519SI     SI113519   3.796   9.017   2.383
13520SI     SI113520   7.040   0.268   2.257
13521SI     SI113521   6.997   9.277   5.787
13522SI     SI113522   8.250   0.658   7.213
13523SI     SI113523   2.087   0.691   4.086
13524SI     SI113524   2.115   0.756   6.554
13525SI     SI113525   3.171   0.248   4.229
13526SI     SI113526   5.292   8.388   3.458
13527SI     SI113527   5.826   8.269   1.755
13528SI     SI113528   8.896   8.997   8.561
13529SI     SI113529   3.318   8.984   4.753
13530SI     SI113530   3.906   8.830   4.979
13531SI     SI113531   6.056   9.290   3.157
13532SI     SI113532   7.808   9.330   1.092
13533SI     SI113533   4.961   0.346   4.146
13534SI     SI113534   0.876   0.898   4.014
13535SI     SI113535   8.810   0.011   4.510
13536SI     SI113536   5.671   0.179   2.412
13537SI     SI113537   3.496   1.052   4.008
13538SI     SI113538   8.193   8.207   1.636
13539SI     SI113539   5.501   8.783   3.802
13540SI     SI113540   9.372   8.573   5.279
13541SI     SI113541   2.208   0.659   3.596
13542SI     SI113542   7.508   9.054   7.614
13543SI     SI113543   0.580   9.584   4.619
13544SI     SI113544   7.783   8.889   5.629
13545SI     SI113545   5.121   0.990   0.674
13546SI     SI113546   2.592   9.529   4.050
13547SI     SI113547   2.722   8.964   4.668
13548SI     SI113548   2.416   8.459   1.461
13549SI     SI113549   3.929   0.846   5.126
13550SI     SI113550   6.361   8.491   9.413
13551SI     SI113551   5.234   9.051   4.424
13552SI     SI113552   4.840   9.088   1.969
13553SI     SI113553   4.847   8.783   6.004
13554SI     SI113554   8.651   8.720   1.118
13555SI     SI113555   7.116   1.288   2.990
13556SI     SI113556   2.047   9.467   7.347
13557SI     SI113557   1.572   0.145   8.268
13558SI     SI113558   7.204   0.218   9.529
13559SI     SI113559   1.173   0.924   9.543
13560SI     SI113560   1.449   0.943   7.640
13561SI     SI113561   4.921   8.950   7.387
13562SI     SI113562   8.365   1.009   8.126
13563SI     SI113563   2.223   8.741   8.607
13564SI     SI113564   3.783   8.840   6.604
13565SI     SI113565   6.776   8.263   0.385
13566SI     SI113566   1.019   0.923   6.642
13567SI     SI113567   3.874   8.597   6.208
13568SI     SI113568   5.189   0.759   7.763
13569SI     SI113569   6.141   0.594   2.628
13570SI     SI113570   2.871   0.265   5.389
13571SI     SI113571   7.591   8.575   1.276
13572SI     SI113572   1.864   0.679   6.677
13573SI     SI113573   2.816   0.708   8.915
13574SI     SI113574   7.276   0.404   0.657
13575SI     SI113575   7.439   1.185   4.368
13576SI     SI113576   4.231   9.004   6.028
13577SI     SI113577   6.960   9.021   5.010
13578SI     SI113578   7.880   0.208   4.590
13579SI     SI113579   5.406   1.143   8.404
13580SI     SI113580   0.477   9.420   2.416
13581SI     SI113581   2.529   1.145   9.357
13582SI     SI113582   5.361   8.856   7.971
13583SI     SI113583   8.253   9.010   3.449
13584SI     SI113584   3.591   1.132   5.993
13585SI     SI113585   3.642   9.344   6.660
13586SI     SI113586   4.451   8.370   7.006
13587SI     SI113587   5.482   8.518   1.421
13588SI     SI113588   2.905   9.251   7.827
13589SI     SI113589   6.134   0.818   8.771
13590SI     SI113590   2.334   0.505   1.328
13591SI     SI113591   5.833   9.075   4.770
13592SI     SI113592   2.554   8.471   6.907
13593SI     SI113593   0.036   0.005   3.022
13594SI     SI113594   7.303   9.535   9.511
13595SI     SI113595   1.731   9.471   3.751
13596SI     SI113596   6.076   0.124   3.897
13597SI     SI113597   5.501   1.222   3.014
13598SI     SI113598   5.920   8.514   5.773
13599SI     SI113599   2.775   8.608   5.775
13600SI     SI113600   0.912   0.214   1.548
13601SI     SI113601   1.203   0.785   8.025
13602SI     SI113602   7.536   8.676   2.667
13603SI     SI113603   3.047   9.474   1.288
13604SI     SI113604   7.368   0.821   2.544
13605SI     SI113605   0.436   9.397   1.692
13606SI     SI113606   6.993   8.743   2.094
13607SI     SI113607   4.774   0.866   9.025
13608SI     SI113608   3.009   8.548   4.421
13609SI     SI113609   2.070   8.707   1.292
13610SI     SI113610   8.216   8.825   3.688
13611SI     SI113611   1.175   1.042   0.865
13612SI     SI113612   9.542   8.748   9.364
13613SI     SI113613   2.262   9.039   0.016
13614SI     SI113614   9.391   8.935   4.046
13615SI     SI113615   7.394   0.472   5.381
13616SI     SI113616   2.154   8.502   4.297
13617SI     SI113617   9.534   1.269   8.818
13618SI     SI113618   7.894   9.573   0.663
13619SI     SI113619   6.437   0.246   2.409
13620SI     SI113620   8.124   9.129   5.284
13621SI     SI113621   9.101   0.013   1.271
13622SI     SI113622   7.917   1.047   0.750
13623SI     SI113623   1.099   8.991   9.081
13624SI     SI113624   0.144   1.259   9.031
13625SI     SI113625   1.308   1.254   0.490
13626SI     SI113626   4.477   8.843   9.550
13627SI     SI113627   8.851   9.427   3.816
13628SI     SI113628   5.436   0.357   0.557
13629SI     SI113629   4.736   1.014   4.778
13630SI     SI113630   4.271   0.111   7.348
13631SI     SI113631   5.299   8.195   1.714
13632SI     SI113632   0.452   8.957   1.949
13633SI     SI113633   0.710   9.110   4.633
13634SI     SI113634   5.440   8.351   2.526
13635SI     SI113635   5.428   0.641   7.935
13636SI     SI113636   6.258   0.655   7.667
13637SI     SI113637   1.283   0.713   7.750
13638SI     SI113638   3.315   0.890   9.034
13639SI     SI113639   0.300   0.578   4.466
13640SI     SI113640   5.651   8.981   1.572
13641SI     SI113641   0.254   0.694   7.003
13642SI     SI113642   1.497   9.189   3.476
13643SI     SI113643   7.670   9.250   4.693
13644SI     SI113644   1.088   9.597   9.492
13645SI     SI113645   5.604   0.149   1.902
13646SI     SI113646   3.966   8.828   1.203
13647SI     SI113647   7.130   8.699   7.640
13648SI     SI113648   3.178   9.068   2.229
13649SI     SI113649   4.730   8.407   3.438
13650SI     SI113650   8.288   0.728   6.717
13651SI     SI113651   0.179   0.964   9.103
13652SI     SI113652   4.638   9.147   1.538
13653SI     SI113653   2.820   0.386   7.944
13654SI     SI113654   1.522   9.306   7.272
13655SI     SI113655   4.318   0.360   7.979
13656SI     SI113656   1.468   1.227   8.726
13657SI     SI113657   0.249   0.434   5.507
13658SI     SI113658   5.151   8.989   2.448
13659SI     SI113659   2.572   0.063   3.089
13660SI     SI113660   0.789   0.611   9.484
13661SI     SI113661   3.255   8.638   4.274
13662SI     SI113662   0.890   0.268   8.216
13663SI     SI113663   6.611   0.496   5.311
13664SI     SI113664   6.262   0.680   8.220
13665SI     SI113665   2.570   9.096   5.180
13666SI     SI113666   2.170   9.286   3.023
13667SI     SI113667   1.553   9.193   8.632
13668SI     SI113668   8.182   0.361   7.116
13669SI     SI113669   1.000   8.712   3.156
13670SI     SI113670   0.987   8.859   5.446
13671SI     SI113671   5.653   0.420   2.019
13672SI     SI113672   7.570   9.300   3.717
13673SI     SI113673   5.387   9.443   8.263
13674SI     SI113674   2.869   1.146   0.346
13675SI     SI113675   1.100   9.441   0.518
13676SI     SI113676   8.248   0.711   3.202
13677SI     SI113677   6.963   8.957   8.104
13678SI     SI113678   8.461   8.637   3.759
13679SI     SI113679   3.593   0.545   6.809
13680SI     SI113680   7.275   9.525   5.514
13681SI     SI113681   3.176   9.288   5.783
13682SI     SI113682   3.089   0.718   0.063
13683SI     SI113683   1.153   8.424   6.745
13684SI     SI113684   2.905   8.709   4.661
13685SI     SI113685   5.752   1.110   7.417
13686SI     SI113686   8.511   0.603   6.333
13687SI     SI113687   5.581   0.053   4.815
13688SI     SI113688   5.151   8.409   2.552
13689SI     SI113689   5.351   1.005   8.672
13690SI     SI113690   0.500   9.419   6.324
13691SI     SI113691   1.745   8.693   3.617
13692SI     SI113692   3.170   8.695   2.579
13693SI     SI113693   3.359   8.450   8.046
13694SI     SI113694   8.822   9.094   9.460
13695SI     SI113695   3.092   0.822   2.092
13696SI     SI113696   4.950   1.152   3.988
13697SI     SI113697   0.092   8.603   1.221
13698SI     SI113698   5.535   0.632   0.984
13699SI     SI113699   6.537   8.787   2.297
13700SI     SI113700   0.483   9.360   0.234
13701SI     SI113701   5.945   0.677   8.967
13702SI     SI113702   1.429   9.051   0.991
13703SI     SI113703   2.165   1.427   6.871
13704SI     SI113704   7.852   9.134   5.446
13705SI     SI113705   0.992   8.620   0.652
13706SI     SI113706   8.225   0.425   8.017
13707SI     SI113707   0.486   0.074   4.084
13708SI     SI113708   1.043   0.645   5.821
13709SI     SI113709   4.496   0.436   4.441
13710SI     SI113710   2.075   8.756   6.511
13711SI     SI113711   9.297   8.498   0.738
13712SI     SI113712   3.219   1.187   8.671
13713SI     SI113713   1.249   0.869   6.468
13714SI     SI113714   6.783   1.071   4.983
13715SI     SI113715   3.232   0.017   0.146
13716SI     SI113716   6.046   9.371   2.686
13717SI     SI113717   0.064   8.906   7.608
13718SI     SI113718   6.283   8.542   7.458
13719SI     SI113719   6.319   0.758   3.145
13720SI     SI113720   8.246   0.927   4.901
13721SI     SI113721   8.472   0.880   6.236
13722SI     SI113722   3.174   0.221   9.270
13723SI     SI113723   4.580   9.224   6.406
13724SI     SI113724   7.124   8.663   0.702
13725SI     SI113725   6.146   0.003   6.075
13726SI     SI113726   8.618   9.521   5.372
13727SI     SI113727   5.805   1.088   8.556
13728SI     SI113728   9.504   0.369   2.721
13729SI     SI113729   3.324   9.189   8.194
13730SI     SI113730   8.339   0.150   4.759
13731SI     SI113731   6.857   0.891   4.729
13732SI     SI113732   5.537   9.392   3.289
13733SI     SI113733   7.137   8.976   9.228
13734SI     SI113734   2.683   0.999   2.993
13735SI     SI113735   9.479   0.964   6.961
13736SI     SI113736   9.260   8.578   3.677
13737SI     SI113737   3.806   0.569   6.386
13738SI     SI113738   8.228   8.455   5.099
13739SI     SI113739   1.360   9.522   6.609
13740SI     SI113740   6.249   8.870   8.711
13741SI     SI113741   0.760   0.611   5.789
13742SI     SI113742   1.015   0.425   5.004
13743SI     SI113743   9.511   0.213   7.798
13744SI     SI113744   7.590   9.596   3.678
13745SI     SI113745   1.666   0.853   7.463
13746SI     SI113746   5.950   9.308   9.389
13747SI     SI113747   1.605   0.699   4.670
13748SI     SI113748   1.897   1.040   1.702
13749SI     SI113749   7.095   0.731   0.024
13750SI     SI113750   8.842   9.232   1.486
13751SI     SI113751   4.282   0.647   3.118
13752SI     SI113752   1.878   8.529   9.130
13753SI     SI113753   2.517   8.735   8.610
13754SI     SI113754   2.597   9.097   1.520
13755SI     SI113755   0.296   0.664   5.885
13756SI     SI113756   5.505   8.756   8.221
13757SI     SI113757   4.623   9.391   1.712
13758SI     SI113758   8.200   9.594   5.223
13759SI     SI113759   7.740   8.768   7.149
13760SI     SI113760   5.073   8.506   6.619
13761SI     SI113761   2.616   0.536   2.892
13762SI     SI113762   7.337   0.418   6.787
13763SI     SI113763   4.254   8.636   3.392
13764SI     SI113764   9.277   8.966   6.762
13765SI     SI113765   3.157   8.919   0.291
13766SI     SI113766   7.378   0.682   6.647
13767SI     SI113767   1.684   1.036   4.352
13768SI     SI113768   3.176   1.145   3.288
13769SI     SI113769   3.453   8.793   7.157
13770SI     SI113770   9.437   0.344   5.425
13771SI     SI113771   3.460   8.828   3.285
13772SI     SI113772   7.696   0.629   0.360
13773SI     SI113773   4.840   9.032   2.469
13774SI     SI113774   2.572   8.718   4.317
13775SI     SI113775   7.639   1.078   7.269
13776SI     SI113776   5.586   0.689   1.883
13777SI     SI113777   2.171   9.444   0.938
13778SI     SI113778   7.700   8.832   4.801
13779SI     SI113779   8.159   0.055   3.581
13780SI     SI113780   5.512   0.523   2.782
13781SI     SI113781   7.922   9.602   2.146
13782SI     SI113782   7.080   0.498   3.388
13783SI     SI113783   0.486   8.846   4.051
13784SI     SI113784   1.385   8.620   1.244
13785SI     SI113785   8.173   8.854   0.795
13786SI     SI113786   0.737   8.259   7.669
13787SI     SI113787   7.136   9.466   9.265
13788SI     SI113788   5.278   8.788   1.836
13789SI     SI113789   0.499   8.906   1.082
13790SI     SI113790   3.408   0.810   5.637
13791SI     SI113791   3.900   8.764   3.743
13792SI     SI113792   9.558   9.407   2.333
13793SI     SI113793   9.314   9.201   5.485
13794SI     SI113794   2.971   8.688   6.948
13795SI     SI113795   3.247   0.679   6.601
13796SI     SI113796   2.277   9.590   0.044
13797SI     SI113797   0.292   8.809   5.182
13798SI     SI113798   7.184   8.185   8.673
13799SI     SI113799   6.497   0.471   2.883
13800SI     SI113800   2.622   0.708   4.676
13801SI     SI113801   6.469   9.168   8.347
13802SI     SI113802   7.933   9.090   6.469
13803SI     SI113803   8.054   0.250   3.118
13804SI     SI113804   0.659   0.262   4.245
13805SI     SI113805   5.065   0.413   3.866
13806SI     SI113806   9.288   8.756   0.580
13807SI     SI113807   6.213   1.107   8.301
13808SI     SI113808   5.361   8.319   8.037
13809SI     SI113809   0.385   0.976   3.365
13810SI     SI113810   6.229   0.553   3.782
13811SI     SI113811   3.799   9.247   3.820
13812SI     SI113812   9.361   8.825   0.004
13813SI     SI113813   6.740   9.529   2.492
13814SI     SI113814   8.559   0.952   1.040
13815SI     SI113815   4.314   1.102   1.092
13816SI     SI113816   9.432   0.311   9.275
13817SI     SI113817   9.151   1.282   7.499
13818SI     SI113818   6.378   0.316   1.451
13819SI     SI113819   6.775   0.384   0.892
13820SI     SI113820   3.520   8.709   2.169
13821SI     SI113821   4.400   9.210   5.286
13822SI     SI113822   3.607   0.392   1.473
13823SI     SI113823   5.855   9.094   8.971
13824SI     SI113824   2.363   9.502   2.638
13825SI     SI113825   4.447   0.332   1.886
13826SI     SI113826   9.325   0.829   5.603
13827SI     SI113827   5.137   0.838   7.110
13828SI     SI113828   7.566   0.441   9.356
13829SI     SI113829   8.637   0.113   1.717
13830SI     SI113830   1.051   0.967   8.762
13831SI     SI113831   8.994   8.856   0.252
13832SI     SI113832   5.367   9.176   2.439
13833SI     SI113833   6.244   8.306   4.992
13834SI     SI113834   3.916   1.183   0.724
13835SI     SI113835   9.213   0.595   6.822
13836SI     SI113836   8.019   0.696   6.111
13837SI     SI113837   2.375   0.579   8.990
13838SI     SI113838   7.828   9.227   4.441
13839SI     SI113839   1.067   1.260   8.440
13840SI     SI113840   7.488   0.953   4.173
13841SI     SI113841   9.061   8.544   0.903
13842SI     SI113842   2.764   0.235   2.579
13843SI     SI113843   8.709   9.120   9.199
13844SI     SI113844   8.987   9.570   4.998
13845SI     SI113845   1.601   0.598   5.519
13846SI     SI113846   5.134   0.358   6.188
13847SI     SI113847   5.504   9.111   8.011
13848SI     SI113848   0.045   0.703   5.111
13849SI     SI113849   7.801   0.517   4.556
13850SI     SI113850   6.496   0.689   4.826
13851SI     SI113851   8.483   1.383   9.068
13852SI     SI113852   8.297   8.412   4.640
13853SI     SI113853   2.500   9.214   0.570
13854SI     SI113854   0.169   8.929   1.483
13855SI     SI113855   2.306   8.911   8.114
13856SI     SI113856   5.238   0.115   3.279
13857SI     SI113857   2.111   9.292   3.940
13858SI     SI113858   0.190   0.109   7.839
13859SI     SI113859   4.614   9.309   2.007
13860SI     SI113860   0.365   0.260   2.615
13861SI     SI113861   7.945   0.170   0.221
13862SI     SI113862   2.131   9.018   3.186
13863SI     SI113863   5.604   0.650   3.059
13864SI     SI113864   4.343   1.125   5.568
13865SI     SI113865   6.303   9.314   6.948
13866SI     SI113866   4.315   9.049   5.730
13867SI     SI113867   4.126   0.143   0.735
13868SI     SI113868   0.808   8.331   7.263
13869SI     SI113869   0.110   0.943   1.059
13870SI     SI113870   0.113   0.863   1.347
13871SI     SI113871   0.181   8.626   3.970
13872SI     SI113872   6.701   0.178   7.153
13873SI     SI113873   3.893   0.864   7.837
13874SI     SI113874   1.720   0.661   6.426
13875SI     SI113875   5.170   1.425   3.294
13876SI     SI113876   5.065   8.444   7.641
13877SI     SI113877   0.589   1.138   9.229
13878SI     SI113878   2.168   0.678   0.715
13879SI     SI113879   3.614   1.143   2.922
13880SI     SI113880   3.141   9.065   7.726
13881SI     SI113881   4.740   9.319   4.643
13882SI     SI113882   8.563   8.591   6.136
13883SI     SI113883   9.415   0.939   7.873
13884SI     SI113884   3.606   0.878   1.830
13885SI     SI113885   3.630   0.164   5.778
13886SI     SI113886   2.134   8.988   2.118
13887SI     SI113887   4.556   0.272   3.792
13888SI     SI113888   5.539   9.193   1.048
13889SI     SI113889   5.555   8.810   6.813
13890SI     SI113890   1.823   1.108   6.685
13891SI     SI113891   8.681   0.647   8.382
13892SI     SI113892   3.067   0.641   0.720
13893SI     SI113893   8.579   9.393   4.154
13894SI     SI113894   9.522   9.206   0.592
13895SI     SI113895   0.570   8.403   7.466
13896SI     SI113896   7.942   0.214   9.151
13897SI     SI113897   2.163   8.447   8.520
13898SI     SI113898   7.893   0.634   2.853
13899SI     SI113899   4.159   0.870   7.928
13900SI     SI113900   5.368   0.535   4.120
13901SI     SI113901   3.046   0.504   0.273
13902SI     SI113902   9.510   8.712   3.535
13903SI     SI113903   6.174   9.270   1.559
13904SI     SI113904   1.650   8.806   7.465
13905SI     SI113905   2.717   0.797   6.175
13906SI     SI113906   0.142   0.064   6.717
13907SI     SI113907   4.894   0.681   2.054
13908SI     SI113908   5.853   8.858   6.837
13909SI     SI113909   2.370   8.688   0.323
13910SI     SI113910   8.304   0.717   6.018
13911SI     SI113911   7.425   0.623   2.779
13912SI     SI113912   6.778   8.743   2.744
13913SI     SI113913   8.496   9.096   7.751
13914SI     SI113914   3.740   8.908   0.680
13915SI     SI113915   8.242   9.012   8.407
13916SI     SI113916   4.706   8.637   1.153
13917SI     SI113917   6.181   9.505   7.819
13918SI     SI113918   5.171   1.136   6.217
13919SI     SI113919   5.745   0.589   4.733
13920SI     SI113920   8.281   9.309   6.185
13921SI     SI113921   4.212   9.498   4.715
13922SI     SI113922   4.761   0.649   5.987
13923SI     SI113923   1.640   0.465   7.206
13924SI     SI113924   8.544   8.677   4.313
13925SI     SI113925   8.231   9.100   4.334
13926SI     SI113926   8.380   9.409   1.734
13927SI     SI113927   6.114   8.983   4.816
13928SI     SI113928   3.117   9.187   7.437
13929SI     SI113929   2.459   1.264   5.522
13930SI     SI113930   1.495   1.111   1.251
13931SI     SI113931   3.310   9.323   1.253
13932SI     SI113932   6.283   9.466   3.115
13933SI     SI113933   1.828   9.502   8.559
13934SI     SI113934   1.826   8.231   9.060
13935SI     SI113935   9.215   1.059   6.277
13936SI     SI113936   1.798   0.442   0.782
13937SI     SI113937   5.771   9.315   7.640
13938SI     SI113938   4.821   0.436   8.042
13939SI     SI113939   2.509   0.771   3.329
13940SI     SI113940   5.335   0.989   8.144
13941SI     SI113941   5.311   9.293   9.243
13942SI     SI113942   4.109   9.006   7.909
13943SI     SI113943   0.431   8.747   1.459
13944SI     SI113944   7.351   0.895   1.647
13945SI     SI113945   9.125   8.203   0.123
13946SI     SI113946   8.229   0.669   4.794
13947SI     SI113947   6.532   9.049   1.976
13948SI     SI113948   9.582   0.726   3.020
13949SI     SI113949   3.529   0.883   8.405
13950SI     SI113950   6.761   0.237   4.961
13951SI     SI113951   3.894   0.948   3.481
13952SI     SI113952   2.615   0.941   4.047
13953SI     SI113953   6.866   9.199   2.822
13954SI     SI113954   8.596   9.132   4.560
13955SI     SI113955   4.183   0.392   2.492
13956SI     SI113956   1.306   0.323   4.974
13957SI     SI113957   7.491   0.089   5.650
13958SI     SI113958   1.037   8.331   4.467
13959SI     SI113959   9.589   0.557   2.110
13960SI     SI113960   3.606   9.020   5.571
13961SI     SI113961   2.344   0.881   5.809
13962SI     SI113962   5.967   9.219   1.330
13963SI     SI113963   8.182   8.607   5.907
13964SI     SI113964   5.557   8.654   4.770
13965SI     SI113965   1.743   0.352   2.198
13966SI     SI113966   9.167   8.546   2.384
13967SI     SI113967   5.541   8.841   7.712
13968SI     SI113968   5.469   0.661   8.997
13969SI     SI113969   0.943   0.194   1.988
13970SI     SI113970   0.236   0.971   6.555
13971SI     SI113971   3.902   0.299   0.860
13972SI     SI113972   4.789   9.199   6.748
13973SI     SI113973   2.997   9.205   3.554
13974SI     SI113974   0.003   0.078   6.434
13975SI     SI113975   8.312   9.001   7.521
13976SI     SI113976   5.711   0.692   7.579
13977SI     SI113977   0.925   0.848   0.816
13978SI     SI113978   2.330   9.042   1.875
13979SI     SI113979   8.799   8.787   9.477
13980SI     SI113980   3.178   0.945   2.805
13981SI     SI113981   5.344   8.447   6.785
13982SI     SI113982   7.320   8.489   6.406
13983SI     SI113983   0.140   0.056   0.191
13984SI     SI113984   7.300   9.504   8.528
13985SI     SI113985   3.859   0.470   6.683
13986SI     SI113986   1.229   8.375   9.010
13987SI     SI113987   5.835   0.822   8.390
13988SI     SI113988   7.744   8.658   0.491
13989SI     SI113989   0.905   0.350   3.674
13990SI     SI113990   6.064   0.997   5.963
13991SI     SI113991   9.140   0.672   4.967
13992SI     SI113992   0.287   8.636   6.829
13993SI     SI113993   0.635   9.264   0.836
13994SI     SI113994   8.492   0.804   4.142
13995SI     SI113995   5.980   0.387   3.802
13996SI     SI113996   1.882   9.086   1.206
13997SI     SI113997   0.367   9.491   3.416
13998SI     SI113998   1.734   9.233   8.884
13999SI     SI113999   9.323   0.438   4.856
14000SI     SI114000   1.948   8.962   4.551
14001SI     SI114001   5.086   1.176   3.157
14002SI     SI114002   1.303   0.316   7.989
14003SI     SI114003   1.134   0.334   4.548
14004SI     SI114004   6.822   8.415   8.490
14005SI     SI114005   9.580   8.597   8.081
14006SI     SI114006   1.759   0.073   7.634
14007SI     SI114007   2.009   0.242   1.589
14008SI     SI114008   5.615   0.592   6.165
14009SI     SI114009   1.465   9.509   3.924
14010SI     SI114010   4.255   9.593   2.785
14011SI     SI114011   5.880   8.470   3.748
14012SI     SI114012   8.289   0.473   2.729
14013SI     SI114013   5.918   8.924   1.422
14014SI     SI114014   3.185   0.043   3.378
14015SI     SI114015   5.617   0.195   6.418
14016SI     SI114016   0.622   8.906   4.828
14017SI     SI114017   5.681   0.116   5.476
14018SI     SI114018   0.861   0.943   6.177
14019SI     SI114019   3.901   9.236   1.564
14020SI     SI114020   6.566   9.472   4.313
14021SI     SI114021   8.976   9.373   3.012
14022SI     SI114022   8.329   9.505   3.795
14023SI     SI114023   1.530   8.869   4.440
14024SI     SI114024   5.317   9.159   7.160
14025SI     SI114025   1.013   0.269   7.926
14026SI     SI114026   2.236   0.470   6.612
14027SI     SI114027   4.718   8.244   2.503
14028SI     SI114028   6.780   0.207   0.270
14029SI     SI114029   3.535   9.559   0.087
14030SI     SI114030   8.107   8.948   3.188
14031SI     SI114031   4.198   9.018   4.090
14032SI     SI114032   3.020   9.305   4.940
14033SI     SI114033   3.364   8.455   8.664
14034SI     SI114034   5.314   0.851   0.282
14035SI     SI114035   5.911   8.418   4.541
14036SI     SI114036   3.364   8.943   3.009
14037SI     SI114037   7.239   8.896   8.454
14038SI     SI114038   8.772   8.609   3.168
14039SI     SI114039   7.749   9.136   1.499
14040SI     SI114040   2.178   8.401   8.216
14041SI     SI114041   0.111   8.808   2.669
14042SI     SI114042   4.398   0.140   9.075
14043SI     SI114043   3.069   1.073   9.114
14044SI     SI114044   4.378   8.748   1.724
14045SI     SI114045   8.813   1.144   8.306
14046SI     SI114046   1.316   8.891   7.957
14047SI     SI114047   8.212   9.214   9.091
14048SI     SI114048   1.887   8.841   0.790
14049SI     SI114049   9.598   9.239   7.917
14050SI     SI114050   1.015   1.306   6.431
14051SI     SI114051   6.905   0.207   0.001
14052SI     SI114052   6.114   0.679   6.665
14053SI     SI114053   9.054   0.831   3.430
14054SI     SI114054   0.551   0.298   7.137
14055SI     SI114055   5.981   9.483   5.095
14056SI     SI114056   1.607   8.219   2.786
14057SI     SI114057   5.631   9.597   4.382
14058SI     SI114058   2.693   0.773   1.902
14059SI     SI114059   1.898   8.333   7.495
14060SI     SI114060   0.327   0.359   3.408
14061SI     SI114061   7.770   0.082   5.518
14062SI     SI114062   8.932   8.935   7.862
14063SI     SI114063   2.737   9.416   3.177
14064SI     SI114064   8.077   1.092   6.358
14065SI     SI114065   0.220   0.517   4.004
14066SI     SI114066   0.778   8.662   4.397
14067SI     SI114067   6.453   9.410   2.549
14068SI     SI114068   5.113   9.465   1.762
14069SI     SI114069   5.854   8.349   2.828
14070SI     SI114070   7.036   9.341   3.301
14071SI     SI114071   1.534   1.159   6.273
14072SI     SI114072   7.983   9.585   1.469
14073SI     SI114073   3.576   8.233   6.360
14074SI     SI114074   8.521   1.094   2.906
14075SI     SI114075   7.120   8.604   5.175
14076SI     SI114076   1.702   0.497   9.314
14077SI     SI114077   3.957   1.090   3.964
14078SI     SI114078   4.769   9.484   5.481
14079SI     SI114079   6.959   0.923   2.778
14080SI     SI114080   0.768   0.090   8.666
14081SI     SI114081   2.709   9.100   0.371
14082SI     SI114082   2.817   0.840   4.264
14083SI     SI114083   4.838   0.141   9.374
14084SI     SI114084   8.112   9.298   3.856
14085SI     SI114085   3.023   8.542   5.261
14086SI     SI114086   2.583   1.235   7.791
14087SI     SI114087   8.586   8.848   1.597
14088SI     SI114088   9.172   0.429   3.682
14089SI     SI114089   7.018   0.870   6.830
14090SI     SI114090   9.025   9.352   9.272
14091SI     SI114091   5.573   0.192   9.250
14092SI     SI114092   5.918   0.485   5.598
14093SI     SI114093   1.725   8.803   8.713
14094SI     SI114094   7.219   9.594   8.801
14095SI     SI114095   6.951   9.265   1.409
14096SI     SI114096   5.761   1.365   2.888
14097SI     SI114097   5.250   0.955   2.253
14098SI     SI114098   4.933   8.987   0.380
14099SI     SI114099   2.542   1.108   6.450
14100SI     SI114100   6.686   8.602   2.495
14101SI     SI114101   7.968   1.146   3.990
14102SI     SI114102   8.497   0.276   8.680
14103SI     SI114103   7.459   1.273   8.088
14104SI     SI114104   7.009   8.444   9.382
14105SI     SI114105   6.455   1.024   7.264
14106SI     SI114106   9.177   1.090   0.335
14107SI     SI114107   8.410   9.264   3.120
14108SI     SI114108   3.388   0.067   2.659
14109SI     SI114109   5.874   8.355   5.510
14110SI     SI114110   1.363   9.455   7.631
14111SI     SI114111   6.331   8.839   1.262
14112SI     SI114112   7.360   0.970   1.356
14113SI     SI114113   5.596   0.213   8.059
14114SI     SI114114   9.569   8.452   9.426
14115SI     SI114115   8.080   8.765   9.200
14116SI     SI114116   6.070   8.965   7.672
14117SI     SI114117   8.434   9.561   2.489
14118SI     SI114118   6.761   0.920   2.367
14119SI     SI114119   7.167   8.975   6.513
14120SI     SI114120   6.639   8.603   3.549
14121SI     SI114121   6.923   1.097   0.520
14122SI     SI114122   0.909   0.240   0.433
14123SI     SI114123   1.146   8.168   5.716
14124SI     SI114124   4.310   1.110   8.020
14125SI     SI114125   7.696   9.569   6.664
14126SI     SI114126   4.368   0.412   3.424
14127SI     SI114127   9.518   1.144   8.337
14128SI     SI114128   2.140   8.604   5.484
14129SI     SI114129   1.151   8.610   6.989
14130SI     SI114130   3.985   0.375   0.009
14131SI     SI114131   8.659   0.146   8.914
14132SI     SI114132   1.385   1.113   4.314
14133SI     SI114133   5.337   8.503   9.413
14134SI     SI114134   1.836   0.664   7.304
14135SI     SI114135   2.766   0.312   3.062
14136SI     SI114136   7.181   1.220   8.125
14137SI     SI114137   1.400   0.733   8.993
14138SI     SI114138   6.229   9.167   8.136
14139SI     SI114139   1.321   0.170   3.859
14140SI     SI114140   1.817   1.238   8.886
14141SI     SI114141   5.913   0.263   7.653
14142SI     SI114142   8.401   0.662   9.109
14143SI     SI114143   5.825   9.134   2.265
14144SI     SI114144   3.425   9.216   6.966
14145SI     SI114145   5.293   9.228   6.860
14146SI     SI114146   0.541   0.476   0.666
14147SI     SI114147   2.623   0.936   9.572
14148SI     SI114148   3.944   9.472   1.063
14149SI     SI114149   9.245   9.256   4.400
14150SI     SI114150   7.811   0.689   8.004
14151SI     SI114151   1.878   0.835   7.697
14152SI     SI114152   4.627   8.703   4.691
14153SI     SI114153   5.533   0.406   2.292
14154SI     SI114154   2.612   8.409   9.004
14155SI     SI114155   3.554   8.541   3.184
14156SI     SI114156   6.612   0.332   1.665
14157SI     SI114157   0.914   9.085   2.064
14158SI     SI114158   7.401   1.006   0.225
14159SI     SI114159   5.445   0.972   9.468
14160SI     SI114160   1.410   9.160   6.245
14161SI     SI114161   6.402   0.232   7.871
14162SI     SI114162   4.026   1.035   8.424
14163SI     SI114163   7.138   8.385   0.578
14164SI     SI114164   0.507   0.132   3.796
14165SI     SI114165   7.321   1.085   7.295
14166SI     SI114166   4.347   9.413   7.351
14167SI     SI114167   3.384   8.557   0.908
14168SI     SI114168   0.644   0.546   7.300
14169SI     SI114169   8.747   0.740   5.928
14170SI     SI114170   2.604   9.256   8.381
14171SI     SI114171   1.183   0.282   8.518
14172SI     SI114172   9.322   9.331   1.671
14173SI     SI114173   1.914   1.155   2.654
14174SI     SI114174   5.651   0.390   7.577
14175SI     SI114175   8.243   8.195   5.461
14176SI     SI114176   0.413   8.955   3.113
14177SI     SI114177   6.138   8.784   1.601
14178SI     SI114178   6.314   0.567   0.876
14179SI     SI114179   6.875   9.552   1.375
14180SI     SI114180   0.021   8.336   5.807
14181SI     SI114181   9.102   8.816   5.699
14182SI     SI114182   2.965   9.555   2.227
14183SI     SI114183   3.674   8.821   8.618
14184SI     SI114184   3.021   8.943   1.097
14185SI     SI114185   0.640   9.021   7.202
14186SI     SI114186   6.218   8.809   6.966
14187SI     SI114187   5.297   0.250   9.393
14188SI     SI114188   7.738   8.304   0.888
14189SI     SI114189   8.406   8.950   9.512
14190SI     SI114190   2.587   9.112   2.314
14191SI     SI114191   4.191   8.556   8.504
14192SI     SI114192   2.324   0.932   3.523
14193SI     SI114193   3.840   8.984   8.052
14194SI     SI114194   5.420   0.904   2.742
14195SI     SI114195   9.137   0.129   3.678
14196SI     SI114196   0.040   1.240   1.594
14197SI     SI114197   9.365   0.916   8.184
14198SI     SI114198   6.418   1.107   2.457
14199SI     SI114199   3.330   0.509   4.580
14200SI     SI114200   5.502   9.549   5.282
14201SI     SI114201   7.116   8.394   3.391
14202SI     SI114202   3.183   1.088   6.226
14203SI     SI114203   0.280   9.499   0.413
14204SI     SI114204   6.682   1.188   8.922
14205SI     SI114205   0.536   0.057   8.478
14206SI     SI114206   4.834   0.055   7.465
14207SI     SI114207   4.078   9.165   5.595
14208SI     SI114208   8.055   0.985   5.858
14209SI     SI114209   6.614   0.635   8.951
14210SI     SI114210   4.228   9.082   0.810
14211SI     SI114211   6.055   1.120   5.076
14212SI     SI114212   4.622   8.712   3.721
14213SI     SI114213   9.474   0.518   1.691
14214SI     SI114214   8.565   8.632   2.436
14215SI     SI114215   0.536   0.966   6.663
14216SI     SI114216   0.049   9.526   8.031
14217SI     SI114217   0.278   9.222   3.553
14218SI     SI114218   2.387   9.266   4.536
14219SI     SI114219   8.812   0.540   2.460
14220SI     SI114220   1.846   8.804   1.090
14221SI     SI114221   8.451   0.162   0.182
14222SI     SI114222   8.038   0.035   9.385
14223SI     SI114223   1.412   0.049   5.015
14224SI     SI114224   1.842   1.391   5.194
14225SI     SI114225   2.080   1.066   3.377
14226SI     SI114226   5.765   9.192   4.309
14227SI     SI114227   0.625   9.418   5.071
14228SI     SI114228   6.619   9.435   1.732
14229SI     SI114229   7.107   1.131   9.396
14230SI     SI114230   0.302   9.027   6.180
14231SI     SI114231   3.577   1.323   2.047
14232SI     SI114232   8.225   8.700   7.164
14233SI     SI114233   2.387   9.556   8.119
14234SI     SI114234   5.589   9.257   5.564
14235SI     SI114235   4.350   9.492   1.622
14236SI     SI114236   2.448   1.011   1.225
14237SI     SI114237   0.667   8.271   1.255
14238SI     SI114238   0.033   0.201   5.985
14239SI     SI114239   7.204   0.425   2.733
14240SI     SI114240   5.896   0.264   8.135
14241SI     SI114241   1.726   0.582   8.149
14242SI     SI114242   4.309   0.767   3.796
14243SI     SI114243   7.894   8.303   2.695
14244SI     SI114244   4.269   8.671   1.992
14245SI     SI114245   1.027   9.181   3.261
14246SI     SI114246   1.623   8.652   5.340
14247SI     SI114247   5.307   8.690   3.347
14248SI     SI114248   3.063   9.391   0.278
14249SI     SI114249   9.420   8.846   4.608
14250SI     SI114250   1.096   9.165   6.221
14251SI     SI114251   4.983   8.362   2.811
14252SI     SI114252   1.736   8.715   2.397
14253SI     SI114253   6.805   0.078   1.652
14254SI     SI114254   3.088   0.724   3.641
14255SI     SI114255   0.176   0.471   1.740
14256SI     SI114256   4.957   0.470   7.063
14257SI     SI114257   1.202   9.426   2.676
14258SI     SI114258   0.027   0.096   2.246
14259SI     SI114259   1.746   8.778   7.988
14260SI     SI114260   3.220   9.601   6.578
14261SI     SI114261   5.639   9.321   8.169
14262SI     SI114262   9.045   0.354   2.770
14263SI     SI114263   5.164   0.490   0.639
14264SI     SI114264   8.169   8.858   8.034
14265SI     SI114265   0.696   8.883   5.555
14266SI     SI114266   8.646   0.255   1.273
14267SI     SI114267   7.265   1.236   8.924
14268SI     SI114268   7.487   0.548   7.581
14269SI     SI114269   5.919   0.357   1.256
14270SI     SI114270   4.581   9.262   7.214
14271SI     SI114271   3.989   8.989   3.232
14272SI     SI114272   7.854   8.482   6.592
14273SI     SI114273   9.524   8.914   0.715
14274SI     SI114274   6.377   0.117   3.892
14275SI     SI114275   0.544   1.185   4.772
14276SI     SI114276   2.132   0.961   4.149
14277SI     SI114277   4.992   9.248   8.572
14278SI     SI114278   3.686   0.201   4.370
14279SI     SI114279   1.257   0.430   6.338
14280SI     SI114280   8.834   1.030   7.601
14281SI     SI114281   4.540   9.493   8.980
14282SI     SI114282   9.408   0.476   4.186
14283SI     SI114283   0.337   8.415   8.574
14284SI     SI114284   5.088   9.270   1.987
14285SI     SI114285   7.723   0.780   8.851
14286SI     SI114286   4.625   0.264   7.551
14287SI     SI114287   6.223   9.380   9.311
14288SI     SI114288   6.534   0.648   3.337
14289SI     SI114289   8.392   0.609   5.037
14290SI     SI114290   2.544   9.456   3.760
14291SI     SI114291   1.866   0.431   5.444
14292SI     SI114292   1.069   8.807   6.772
14293SI     SI114293   0.158   8.709   0.757
14294SI     SI114294   0.648   0.569   1.145
14295SI     SI114295   1.892   9.545   2.638
14296SI     SI114296   0.825   0.132   1.116
14297SI     SI114297   0.026   9.440   9.247
14298SI     SI114298   3.632   9.226   4.491
14299SI     SI114299   0.689   0.979   3.300
14300SI     SI114300   0.272   9.580   9.134
14301SI     SI114301   2.760   9.582   0.485
14302SI     SI114302   0.386   8.332   7.901
14303SI     SI114303   3.455   8.232   5.389
14304SI     SI114304   2.563   0.644   4.013
14305SI     SI114305   5.955   8.661   7.046
14306SI     SI114306   1.066   0.758   6.257
14307SI     SI114307   1.381   0.608   2.415
14308SI     SI114308   0.436   9.178   8.662
14309SI     SI114309   4.990   0.101   5.848
14310SI     SI114310   0.958   0.558   1.167
14311SI     SI114311   0.796   0.580   6.259
14312SI     SI114312   4.564   0.809   7.231
14313SI     SI114313   8.491   0.149   6.222
14314SI     SI114314   2.369   1.114   4.855
14315SI     SI114315   8.037   0.693   3.432
14316SI     SI114316   8.910   0.602   4.019
14317SI     SI114317   1.860   9.345   9.459
14318SI     SI114318   4.199   1.014   3.158
14319SI     SI114319   3.850   9.459   9.311
14320SI     SI114320   1.836   9.002   2.448
14321SI     SI114321   4.329   0.573   1.392
14322SI     SI114322   3.132   8.445   1.274
14323SI     SI114323   0.201   9.261   2.743
14324SI     SI114324   6.887   9.405   6.622
14325SI     SI114325   5.196   1.111   1.079
14326SI     SI114326   6.501   9.004   8.599
14327SI     SI114327   7.441   9.169   5.091
14328SI     SI114328   4.068   0.106   2.010
14329SI     SI114329   4.254   8.775   0.273
14330SI     SI114330   7.324   9.050   5.348
14331SI     SI114331   4.783   0.561   9.124
14332SI     SI114332   6.196   8.367   5.797
14333SI     SI114333   6.608   0.631   0.018
14334SI     SI114334   2.537   8.621   6.181
14335SI     SI114335   5.281   9.048   6.475
14336SI     SI114336   3.733   0.333   6.182
14337SI     SI114337   1.384   9.382   0.405
14338SI     SI114338   1.401   8.305   2.412
14339SI     SI114339   3.162   8.692   8.084
14340SI     SI114340   3.862   0.806   3.935
14341SI     SI114341   5.456   9.112   3.181
14342SI     SI114342   5.875   9.329   5.502
14343SI     SI114343   7.855   8.430   1.328
14344SI     SI114344   2.798   8.487   9.236
14345SI     SI114345   5.365   0.157   8.812
14346SI     SI114346   7.344   0.032   2.675
14347SI     SI114347   2.922   8.701   0.614
14348SI     SI114348   2.320   9.407   6.637
14349SI     SI114349   8.111   9.417   0.242
14350SI     SI114350   8.422   0.100   9.238
14351SI     SI114351   4.408   1.142   6.843
14352SI     SI114352   5.557   8.591   6.604
14353SI     SI114353   4.138   9.441   6.517
14354SI     SI114354   4.516   0.736   9.375
14355SI     SI114355   9.180   0.287   2.293
14356SI     SI114356   9.124   0.204   5.861
14357SI     SI114357   3.742   9.024   8.976
14358SI     SI114358   3.683   9.342   2.960
14359SI     SI114359   7.258   0.168   4.448
14360SI     SI114360   7.944   0.672   5.257
14361SI     SI114361   6.245   8.322   1.403
14362SI     SI114362   5.978   0.842   2.248
14363SI     SI114363   0.640   0.518   6.724
14364SI     SI114364   7.501   9.215   3.431
14365SI     SI114365   8.648   0.011   5.875
14366SI     SI114366   4.452   1.209   2.768
14367SI     SI114367   6.997   9.296   1.873
14368SI     SI114368   8.582   8.928   0.615
14369SI     SI114369   4.823   0.724   8.398
14370SI     SI114370   5.003   9.485   4.288
14371SI     SI114371   3.579   0.317   5.252
14372SI     SI114372   5.581   9.532   2.275
14373SI     SI114373   3.248   0.393   8.800
14374SI     SI114374   2.212   8.902   6.753
14375SI     SI114375   5.910   9.493   3.883
14376SI     SI114376   4.662   0.733   4.854
14377SI     SI114377   8.034   8.846   7.537
14378SI     SI114378   0.019   8.915   6.222
14379SI     SI114379   4.862   0.640   4.210
14380SI     SI114380   9.499   8.936   3.327
14381SI     SI114381   8.006   0.143   2.420
14382SI     SI114382   0.274   8.462   9.162
14383SI     SI114383   5.280   9.320   1.549
14384SI     SI114384   3.865   8.859   2.851
14385SI     SI114385   6.321   8.234   5.272
14386SI     SI114386   8.888   8.939   1.593
14387SI     SI114387   3.073   1.221   4.205
14388SI     SI114388   3.625   8.934   4.423
14389SI     SI114389   2.001   0.148   4.124
14390SI     SI114390   2.212   9.491   1.945
14391SI     SI114391   7.721   9.350   9.297
14392SI     SI114392   3.479   1.333   6.797
14393SI     SI114393   3.268   8.202   8.191
14394SI     SI114394   7.772   9.125   8.127
14395SI     SI114395   8.555   9.411   8.494
14396SI     SI114396   8.596   8.947   2.795
14397SI     SI114397   3.486   9.233   0.792
14398SI     SI114398   5.676   0.408   4.486
14399SI     SI114399   0.677   1.145   5.777
14400SI     SI114400   8.558   9.430   4.471
14401SI     SI114401   0.513   0.440   5.850
14402SI     SI114402   3.500   8.749   4.785
14403SI     SI114403   2.277   8.249   3.125
14404SI     SI114404   2.809   9.096   2.787
14405SI     SI114405   8.768   0.756   4.534
14406SI     SI114406   2.491   0.249   2.178
14407SI     SI114407   4.186   9.392   6.061
14408SI     SI114408   1.712   1.126   3.825
14409SI     SI114409   9.248   0.763   6.189
14410SI     SI114410   4.280   8.727   5.310
14411SI     SI114411   9.090   9.568   6.467
14412SI     SI114412   1.079   1.330   0.899
14413SI     SI114413   6.628   0.109   9.484
14414SI     SI114414   1.518   9.267   9.102
14415SI     SI114415   9.152   9.358   6.692
14416SI     SI114416   2.517   8.719   5.905
14417SI     SI114417   7.301   0.759   5.411
14418SI     SI114418   6.222   0.868   4.221
14419SI     SI114419   2.706   8.731   7.452
14420SI     SI114420   7.118   1.049   1.167
14421SI     SI114421   8.187   9.462   7.281
14422SI     SI114422   0.208   8.525   4.744
14423SI     SI114423   0.688   0.731   8.958
14424SI     SI114424   6.239   8.991   2.013
14425SI     SI114425   5.979   9.160   2.898
14426SI     SI114426   3.645   0.397   3.797
14427SI     SI114427   6.174   0.817   0.540
14428SI     SI114428   8.585   9.042   0.156
14429SI     SI114429   0.095   0.556   3.469
14430SI     SI114430   2.626   0.505   8.171
14431SI     SI114431   6.320   9.222   2.720
14432SI     SI114432   0.828   0.472   7.763
14433SI     SI114433   0.826   8.584   9.453
14434SI     SI114434   3.617   1.249   7.720
14435SI     SI114435   7.718   0.271   8.687
14436SI     SI114436   2.545   8.668   9.320
14437SI     SI114437   0.977   8.254   8.132
14438SI     SI114438   2.891   8.984   5.418
14439SI     SI114439   5.846   0.737   6.817
14440SI     SI114440   7.933   0.697   4.365
14441SI     SI114441   4.221   9.422   3.179
14442SI     SI114442   3.192   0.979   8.139
14443SI     SI114443   3.646   0.182   0.778
14444SI     SI114444   3.891   8.324   4.324
14445SI     SI114445   4.734   0.741   1.810
14446SI     SI114446   3.790   8.682   4.725
14447SI     SI114447   7.805   1.136   0.473
14448SI     SI114448   0.077   8.628   1.807
14449SI     SI114449   0.461   1.192   5.572
14450SI     SI114450   6.174   0.001   0.102
14451SI     SI114451   0.544   0.094   5.502
14452SI     SI114452   1.920   9.282   6.779
14453SI     SI114453   3.868   0.598   8.985
14454SI     SI114454   4.235   9.588   2.213
14455SI     SI114455   2.444   0.919   6.241
14456SI     SI114456   5.834   9.163   6.128
14457SI     SI114457   5.887   8.588   5.303
14458SI     SI114458   5.188   8.740   3.768
14459SI     SI114459   7.806   1.218   7.784
14460SI     SI114460   0.173   1.107   8.161
14461SI     SI114461   8.853   8.631   5.760
14462SI     SI114462   8.076   0.247   6.657
14463SI     SI114463   3.249   0.966   4.169
14464SI     SI114464   2.456   0.098   4.427
14465SI     SI114465   0.833   9.417   3.765
14466SI     SI114466   2.222   0.480   7.172
14467SI     SI114467   5.293   9.482   2.650
14468SI     SI114468   3.451   9.477   7.790
14469SI     SI114469   5.956   0.908   6.245
14470SI     SI114470   3.172   0.408   5.917
14471SI     SI114471   0.621   0.644   2.816
14472SI     SI114472   3.138   8.979   9.059
14473SI     SI114473   6.751   0.643   2.485
14474SI     SI114474   6.312   0.724   1.723
14475SI     SI114475   0.789   8.865   1.003
14476SI     SI114476   6.905   0.560   5.385
14477SI     SI114477   8.565   8.472   7.901
14478SI     SI114478   8.618   8.603   8.175
14479SI     SI114479   3.307   8.819   8.848
14480SI     SI114480   8.875   0.045   8.730
14481SI     SI114481   6.952   9.306   7.192
14482SI     SI114482   4.661   1.270   0.212
14483SI     SI114483   2.966   9.497   8.003
14484SI     SI114484   3.073   0.004   9.478
14485SI     SI114485   3.075   0.706   4.151
14486SI     SI114486   5.154   8.482   8.200
14487SI     SI114487   1.562   1.026   8.283
14488SI     SI114488   0.668   0.094   7.641
14489SI     SI114489   7.216   0.898   4.025
14490SI     SI114490   6.986   9.340   2.576
14491SI     SI114491   7.137   8.704   0.268
14492SI     SI114492   3.052   0.052   7.748
14493SI     SI114493   8.094   9.151   6.963
14494SI     SI114494   6.278   9.143   9.121
14495SI     SI114495   2.895   9.113   4.464
14496SI     SI114496   8.926   0.245   1.392
14497SI     SI114497   0.972   9.239   0.139
14498SI     SI114498   6.249   0.366   4.510
14499SI     SI114499   3.551   9.038   2.559
14500SI     SI114500   2.413   0.201   1.356
14501SI     SI114501   4.406   9.366   2.930
14502SI     SI114502   8.540   0.586   8.642
14503SI     SI114503   1.992   0.460   0.563
14504SI     SI114504   9.407   9.316   9.064
14505SI     SI114505   6.495   8.351   0.267
14506SI     SI114506   2.249   9.262   9.181
14507SI     SI114507   3.567   0.399   7.070
14508SI     SI114508   6.912   8.918   7.588
14509SI     SI114509   7.136   0.296   8.244
14510SI     SI114510   6.707   0.990   8.472
14511SI     SI114511   3.324   0.497   1.495
14512SI     SI114512   0.786   8.434   2.399
14513SI     SI114513   0.633   0.226   6.849
14514SI     SI114514   5.211   8.485   8.499
14515SI     SI114515   4.766   8.545   1.932
14516SI     SI114516   6.803   0.466   2.227
14517SI     SI114517   8.570   0.225   2.474
14518SI     SI114518   8.572   0.133   8.243
14519SI     SI114519   4.621   0.745   8.804
14520SI     SI114520   1.419   0.627   6.507
14521SI     SI114521   1.019   8.543   9.128
14522SI     SI114522   7.064   1.004   7.775
14523SI     SI114523   2.639   0.605   9.145
14524SI     SI114524   9.483   8.486   6.049
14525SI     SI114525   4.342   9.215   7.590
14526SI     SI114526   6.632   9.025   2.715
14527SI     SI114527   4.238   9.506   8.445
14528SI     SI114528   7.650   8.646   5.256
14529SI     SI114529   1.273   0.716   6.030
14530SI     SI114530   2.776   8.777   1.060
14531SI     SI114531   2.140   1.300   1.073
14532SI     SI114532   2.608   1.269   6.888
14533SI     SI114533   7.550   1.005   8.210
14534SI     SI114534   5.440   0.140   4.217
14535SI     SI114535   3.950   0.912   0.229
14536SI     SI114536   0.974   1.015   6.919
14537SI     SI114537   6.985   0.012   3.402
14538SI     SI114538   2.949   8.883   4.011
14539SI     SI114539   3.930   9.341   8.838
14540SI     SI114540   3.998   9.326   4.868
14541SI     SI114541   8.987   1.000   5.269
14542SI     SI114542   2.158   9.333   5.273
14543SI     SI114543   9.279   9.174   7.472
14544SI     SI114544   9.169   1.063   4.316
14545SI     SI114545   2.540   1.125   5.104
14546SI     SI114546   9.352   0.804   3.386
14547SI     SI114547   3.699   0.200   8.723
14548SI     SI114548   4.305   0.767   6.501
14549SI     SI114549   7.790   0.602   1.724
14550SI     SI114550   1.345   0.256   5.905
14551SI     SI114551   6.003   9.351   1.054
14552SI     SI114552   1.141   0.223   1.761
14553SI     SI114553   0.264   1.394   4.436
14554SI     SI114554   1.895   1.162   7.116
14555SI     SI114555   4.660   8.807   5.773
14556SI     SI114556   0.383   8.618   7.766
14557SI     SI114557   3.729   0.539   4.787
14558SI     SI114558   9.387   0.955   3.111
14559SI     SI114559   2.271   0.832   7.953
14560SI     SI114560   1.749   0.046   2.201
14561SI     SI114561   7.609   0.643   0.999
14562SI     SI114562   9.248   8.728   2.913
14563SI     SI114563   2.752   9.460   1.268
14564SI     SI114564   5.757   0.885   5.335
14565SI     SI114565   8.915   8.680   8.592
14566SI     SI114566   5.913   0.346   0.703
14567SI     SI114567   3.047   0.475   6.718
14568SI     SI114568   4.773   9.319   1.327
14569SI     SI114569   8.762   8.877   6.636
14570SI     SI114570   8.976   9.308   3.553
14571SI     SI114571   1.169   8.823   0.296
14572SI     SI114572   8.891   8.518   8.840
14573SI     SI114573   2.524   0.195   4.135
14574SI     SI114574   2.997   8.242   0.742
14575SI     SI114575   2.080   1.332   4.453
14576SI     SI114576   5.153   0.305   1.801
14577SI     SI114577   5.210   1.127   0.219
14578SI     SI114578   3.775   9.039   5.154
14579SI     SI114579   5.545   8.911   5.982
14580SI     SI114580   0.567   1.261   6.660
14581SI     SI114581   5.622   0.646   3.571
14582SI     SI114582   5.910   9.055   9.529
14583SI     SI114583   8.183   9.120   2.760
14584SI     SI114584   6.764   9.177   6.794
14585SI     SI114585   4.212   8.457   2.475
14586SI     SI114586   7.428   0.722   3.551
14587SI     SI114587   9.580   8.380   0.111
14588SI     SI114588   3.916   8.656   0.944
14589SI     SI114589   0.987   8.745   3.459
14590SI     SI114590   1.886   9.192   5.219
14591SI     SI114591   2.955   8.988   0.483
14592SI     SI114592   7.410   8.467   7.382
14593SI     SI114593   7.514   9.003   9.496
14594SI     SI114594   1.884   8.742   0.029
14595SI     SI114595   2.616   9.514   8.908
14596SI     SI114596   5.484   9.384   7.200
14597SI     SI114597   8.011   9.190   3.005
14598SI     SI114598   6.678   1.122   3.897
14599SI     SI114599   3.030   0.493   8.976
14600SI     SI114600   6.967   1.193   8.981
14601SI     SI114601   7.849   0.453   3.513
14602SI     SI114602   0.545   0.406   5.091
14603SI     SI114603   0.853   8.686   4.849
14604SI     SI114604   7.211   9.084   8.226
14605SI     SI114605   4.936   0.278   0.591
14606SI     SI114606   1.513   9.431   1.119
14607SI     SI114607   5.847   0.854   1.974
14608SI     SI114608   3.658   9.283   3.247
14609SI     SI114609   0.765   0.010   2.814
14610SI     SI114610   0.357   0.798   4.034
14611SI     SI114611   8.985   8.808   6.158
14612SI     SI114612   2.070   8.849   7.012
14613SI     SI114613   3.357   8.862   2.387
14614SI     SI114614   6.679   0.490   8.383
14615SI     SI114615   7.546   8.760   1.533
14616SI     SI114616   3.044   0.686   2.722
14617SI     SI114617   2.672   9.295   1.005
14618SI     SI114618   0.570   0.285   4.545
14619SI     SI114619   8.382   9.019   4.766
14620SI     SI114620   6.117   9.015   2.307
14621SI     SI114621   9.060   0.800   0.372
14622SI     SI114622   2.118   0.819   2.292
14623SI     SI114623   7.310   9.495   1.655
14624SI     SI114624   0.059   0.909   9.498
14625SI     SI114625   2.892   0.218   4.205
14626SI     SI114626   7.482   9.021   4.579
14627SI     SI114627   2.366   9.055   8.972
14628SI     SI114628   2.940   9.131   7.195
14629SI     SI114629   2.668   9.359   6.921
14630SI     SI114630   1.880   8.289   5.750
14631SI     SI114631   1.661   9.286   7.962
14632SI     SI114632   5.999   9.045   4.196
14633SI     SI114633   9.547   0.520   0.922
14634SI     SI114634   8.132   0.742   1.040
14635SI     SI114635   3.077   0.508   8.343
14636SI     SI114636   8.785   1.073   4.505
14637SI     SI114637   4.711   9.173   4.921
14638SI     SI114638   3.124   0.195   4.979
14639SI     SI114639   3.215   8.825   5.807
14640SI     SI114640   2.873   0.643   0.496
14641SI     SI114641   6.606   0.628   0.776
14642SI     SI114642   2.326   0.590   5.433
14643SI     SI114643   2.115   0.986   0.047
14644SI     SI114644   9.355   0.809   3.875
14645SI     SI114645   1.440   0.139   2.853
14646SI     SI114646   1.225   9.347   1.931
14647SI     SI114647   1.510   0.057   5.449
14648SI     SI114648   2.618   8.328   8.477
14649SI     SI114649   1.904   8.540   7.871
14650SI     SI114650   8.287   8.733   3.054
14651SI     SI114651   4.853   9.046   0.684
14652SI     SI114652   3.246   0.196   7.445
14653SI     SI114653   1.459   0.743   8.679
14654SI     SI114654   5.602   8.573   4.022
14655SI     SI114655   6.803   9.309   6.344
14656SI     SI114656   0.065   0.477   9.294
14657SI     SI114657   8.473   9.076   2.353
14658SI     SI114658   4.503   9.413   0.617
14659SI     SI114659   7.980   0.212   1.926
14660SI     SI114660   0.933   1.141   8.216
14661SI     SI114661   7.643   0.834   0.136
14662SI     SI114662   1.056   8.976   3.018
14663SI     SI114663   5.897   0.269   8.446
14664SI     SI114664   5.487   0.348   0.249
14665SI     SI114665   5.311   0.759   2.012
14666SI     SI114666   8.740   0.707   1.075
14667SI     SI114667   7.226   0.582   6.146
14668SI     SI114668   6.812   8.818   7.045
14669SI     SI114669   5.366   9.002   9.367
14670SI     SI114670   9.144   8.727   8.246
14671SI     SI114671   6.259   9.130   6.719
14672SI     SI114672   5.128   9.204   5.795
14673SI     SI114673   8.959   8.444   1.468
14674SI     SI114674   2.053   0.167   9.509
14675SI     SI114675   6.370   0.489   5.789
14676SI     SI114676   2.447   0.535   0.775
14677SI     SI114677   1.598   1.330   9.494
14678SI     SI114678   6.171   8.835   7.422
14679SI     SI114679   2.591   0.007   5.744
14680SI     SI114680   2.221   9.469   3.272
14681SI     SI114681   8.462   9.235   6.674
14682SI     SI114682   5.992   0.465   0.169
14683SI     SI114683   8.937   0.073   3.322
14684SI     SI114684   9.402   0.162   4.927
14685SI     SI114685   0.617   0.059   6.470
14686SI     SI114686   8.796   8.466   8.395
14687SI     SI114687   3.877   0.351   5.318
14688SI     SI114688   8.772   1.148   1.145
14689SI     SI114689   5.844   9.593   0.968
14690SI     SI114690   3.104   8.503   7.679
14691SI     SI114691   7.734   9.316   6.505
14692SI     SI114692   3.757   9.054   1.198
14693SI     SI114693   3.956   9.503   0.645
14694SI     SI114694   6.985   9.065   6.982
14695SI     SI114695   7.054   0.959   6.542
14696SI     SI114696   5.868   0.219   2.882
14697SI     SI114697   6.197   8.296   4.547
14698SI     SI114698   1.319   0.839   3.943
14699SI     SI114699   8.848   0.693   7.163
14700SI     SI114700   4.640   0.920   0.552
14701SI     SI114701   7.535   8.852   5.431
14702SI     SI114702   8.940   9.053   2.550
14703SI     SI114703   4.986   9.205   5.070
14704SI     SI114704   4.618   9.013   8.460
14705SI     SI114705   3.017   1.099   1.948
14706SI     SI114706   6.861   1.030   1.653
14707SI     SI114707   3.720   1.012   8.801
14708SI     SI114708   7.240   8.625   2.565
14709SI     SI114709   3.238   8.833   3.515
14710SI     SI114710   1.660   0.008   5.190
14711SI     SI114711   5.043   9.297   9.373
14712SI     SI114712   9.283   0.663   6.459
14713SI     SI114713   7.819   0.153   1.281
14714SI     SI114714   4.338   0.899   7.028
14715SI     SI114715   7.812   0.193   6.484
14716SI     SI114716   0.472   9.101   0.404
14717SI     SI114717   8.124   9.351   5.058
14718SI     SI114718   0.255   9.334   6.174
14719SI     SI114719   3.966   1.207   1.651
14720SI     SI114720   5.301   1.345   4.588
14721SI     SI114721   1.673   1.136   7.335
14722SI     SI114722   4.665   9.164   1.074
14723SI     SI114723   0.258   8.345   7.466
14724SI     SI114724   7.569   9.018   7.178
14725SI     SI114725   8.967   8.613   4.631
14726SI     SI114726   0.844   0.656   0.154
14727SI     SI114727   1.404   0.869   4.800
14728SI     SI114728   4.715   8.604   0.476
14729SI     SI114729   4.657   9.511   9.262
14730SI     SI114730   1.600   9.297   4.754
14731SI     SI114731   3.816   0.895   6.858
14732SI     SI114732   7.092   9.005   2.217
14733SI     SI114733   1.029   0.954   4.961
14734SI     SI114734   5.239   8.344   1.445
14735SI     SI114735   3.811   0.580   1.328
14736SI     SI114736   8.623   0.097   2.929
14737SI     SI114737   2.939   9.422   1.712
14738SI     SI114738   8.563   0.791   2.908
14739SI     SI114739   4.730   9.301   0.793
14740SI     SI114740   8.818   0.913   6.557
14741SI     SI114741   1.305   0.611   2.695
14742SI     SI114742   2.880   9.391   4.027
14743SI     SI114743   1.871   9.599   9.314
14744SI     SI114744   7.606   0.103   7.903
14745SI     SI114745   6.336   8.793   9.493
14746SI     SI114746   0.829   0.009   4.759
14747SI     SI114747   6.419   1.076   9.253
14748SI     SI114748   7.983   9.221   1.842
14749SI     SI114749   1.949   0.365   5.737
14750SI     SI114750   6.852   8.376   9.047
14751SI     SI114751   1.448   8.399   5.386
14752SI     SI114752   4.907   0.925   2.768
14753SI     SI114753   0.707   8.908   1.421
14754SI     SI114754   5.879   0.721   7.130
14755SI     SI114755   6.556   8.594   6.217
14756SI     SI114756   3.546   9.242   6.401
14757SI     SI114757   8.252   8.431   6.796
14758SI     SI114758   3.067   8.797   8.361
14759SI     SI114759   7.326   1.012   4.614
14760SI     SI114760   2.658   9.325   5.641
14761SI     SI114761   9.496   8.795   5.973
14762SI     SI114762   1.872   0.416   9.061
14763SI     SI114763   4.919   9.521   9.562
14764SI     SI114764   1.778   9.211   4.537
14765SI     SI114765   3.942   8.420   8.608
14766SI     SI114766   4.274   8.488   1.568
14767SI     SI114767   2.669   8.643   2.752
14768SI     SI114768   1.697   8.476   4.062
14769SI     SI114769   4.247   9.176   9.313
14770SI     SI114770   8.015   0.081   8.892
14771SI     SI114771   6.146   1.185   3.555
14772SI     SI114772   9.402   0.855   1.378
14773SI     SI114773   0.902   9.353   2.730
14774SI     SI114774   7.134   8.676   3.512
14775SI     SI114775   4.208   0.561   7.376
14776SI     SI114776   7.871   0.775   7.524
14777SI     SI114777   0.781   0.680   7.995
14778SI     SI114778   7.535   0.373   8.896
14779SI     SI114779   6.157   0.681   9.430
14780SI     SI114780   6.248   0.843   3.907
14781SI     SI114781   3.761   0.552   0.055
14782SI     SI114782   8.957   8.512   2.160
14783SI     SI114783   7.743   0.590   5.040
14784SI     SI114784   7.834   8.328   3.011
14785SI     SI114785   0.063   8.518   1.509
14786SI     SI114786   6.430   9.247   9.512
14787SI     SI114787   9.229   8.297   0.538
14788SI     SI114788   9.425   0.692   7.674
14789SI     SI114789   5.046   0.018   7.968
14790SI     SI114790   4.617   0.454   1.404
14791SI     SI114791   7.625   8.536   3.971
14792SI     SI114792   4.985   8.705   0.413
14793SI     SI114793   0.543   8.757   2.908
14794SI     SI114794   8.981   0.467   3.058
14795SI     SI114795   6.455   9.297   5.272
14796SI     SI114796   3.624   9.004   4.118
14797SI     SI114797   6.019   1.100   8.793
14798SI     SI114798   6.175   8.416   8.998
14799SI     SI114799   0.876   0.916   9.482
14800SI     SI114800   0.794   8.644   8.653
14801SI     SI114801   3.614   9.049   2.864
14802SI     SI114802   6.015   0.381   5.172
14803SI     SI114803   8.354   1.035   4.574
14804SI     SI114804   8.276   8.835   6.687
14805SI     SI114805   1.708   0.990   3.076
14806SI     SI114806   3.788   9.351   1.310
14807SI     SI114807   2.557   0.801   8.073
14808SI     SI114808   0.063   8.849   4.140
14809SI     SI114809   7.244   0.373   7.672
14810SI     SI114810   4.043   8.400   1.079
14811SI     SI114811   5.056   8.836   4.541
14812SI     SI114812   8.045   1.287   0.890
14813SI     SI114813   9.568   0.317   8.572
14814SI     SI114814   5.276   0.892   4.317
14815SI     SI114815   2.851   1.045   1.065
14816SI     SI114816   5.530   8.307   0.128
14817SI     SI114817   5.467   1.202   0.086
14818SI     SI114818   1.582   0.682   2.813
14819SI     SI114819   0.281   8.967   8.513
14820SI     SI114820   8.569   1.210   0.362
14821SI     SI114821   8.341   1.076   9.241
14822SI     SI114822   7.639   9.149   0.427
14823SI     SI114823   3.935   0.736   1.546
14824SI     SI114824   4.154   8.547   4.072
14825SI     SI114825   4.901   9.096   5.339
14826SI     SI114826   3.116   8.559   2.093
14827SI     SI114827   4.378   8.474   6.499
14828SI     SI114828   6.695   9.215   4.283
14829SI     SI114829   8.543   8.253   5.507
14830SI     SI114830   6.116   8.680   4.803
14831SI     SI114831   7.709   0.321   1.827
14832SI     SI114832   1.397   0.018   8.064
14833SI     SI114833   0.180   1.170   3.035
14834SI     SI114834   9.339   9.338   4.690
14835SI     SI114835   6.813   8.371   2.033
14836SI     SI114836   2.749   8.951   4.235
14837SI     SI114837   3.711   8.849   6.313
14838SI     SI114838   9.067   0.536   0.847
14839SI     SI114839   5.525   9.188   6.051
14840SI     SI114840   6.604   8.389   6.451
14841SI     SI114841   8.636   0.486   0.387
14842SI     SI114842   1.828   8.933   9.402
14843SI     SI114843   5.291   0.314   5.509
14844SI     SI114844   2.038   9.024   0.420
14845SI     SI114845   3.917   8.816   4.471
14846SI     SI114846   5.572   1.122   3.905
14847SI     SI114847   9.395   9.290   3.648
14848SI     SI114848   4.172   9.235   7.193
14849SI     SI114849   2.924   8.464   6.586
14850SI     SI114850   7.149   0.012   2.929
14851SI     SI114851   7.668   0.447   6.355
14852SI     SI114852   8.347   8.614   0.764
14853SI     SI114853   1.031   8.609   2.344
14854SI     SI114854   2.800   0.320   1.006
14855SI     SI114855   6.370   0.385   0.442
14856SI     SI114856   1.150   9.241   5.265
14857SI     SI114857   1.865   8.507   9.421
14858SI     SI114858   8.551   0.757   8.153
14859SI     SI114859   0.629   1.198   8.214
14860SI     SI114860   9.279   8.714   0.276
14861SI     SI114861   6.256   0.297   0.164
14862SI     SI114862   8.592   9.085   7.145
14863SI     SI114863   8.075   0.557   6.619
14864SI     SI114864   7.813   1.441   0.454
14865SI     SI114865   3.573   0.625   0.292
14866SI     SI114866   9.162   9.075   3.606
14867SI     SI114867   3.755   8.320   9.460
14868SI     SI114868   2.599   9.152   1.996
14869SI     SI114869   5.117   1.050   6.666
14870SI     SI114870   2.411   9.261   7.038
14871SI     SI114871   6.997   0.186   1.248
14872SI     SI114872   6.725   8.504   7.764
14873SI     SI114873   4.621   0.021   2.473
14874SI     SI114874   7.666   8.523   6.977
14875SI     SI114875   5.296   1.077   5.319
14876SI     SI114876   6.914   0.949   8.170
14877SI     SI114877   7.507   0.682   2.308
14878SI     SI114878   7.132   8.408   8.896
14879SI     SI114879   0.013   1.057   2.532
14880SI     SI114880   5.260   9.122   0.913
14881SI     SI114881   5.888   1.032   5.562
14882SI     SI114882   0.780   0.235   4.965
14883SI     SI114883   5.659   0.536   0.703
14884SI     SI114884   2.006   1.127   5.235
14885SI     SI114885   5.162   0.679   3.418
14886SI     SI114886   6.681   9.028   8.171
14887SI     SI114887   6.432   9.233   3.013
14888SI     SI114888   9.140   8.593   1.911
14889SI     SI114889   9.093   0.132   1.912
14890SI     SI114890   6.875   1.313   6.037
14891SI     SI114891   9.027   8.519   3.010
14892SI     SI114892   0.771   1.039   5.112
14893SI     SI114893   6.141   0.660   5.209
14894SI     SI114894   1.093   0.978   2.326
14895SI     SI114895   4.584   1.142   5.744
14896SI     SI114896   1.483   8.661   7.906
14897SI     SI114897   5.647   1.163   5.733
14898SI     SI114898   6.982   0.227   4.026
14899SI     SI114899   1.233   0.356   2.864
14900SI     SI114900   5.059   8.660   9.368
14901SI     SI114901   6.517   0.218   1.206
14902SI     SI114902   2.253   8.577   0.573
14903SI     SI114903   0.136   9.291   7.142
14904SI     SI114904   3.646   0.499   9.172
14905SI     SI114905   6.740   8.426   6.013
14906SI     SI114906   6.420   9.586   6.876
14907SI     SI114907   2.741   0.572   7.210
14908SI     SI114908   2.816   0.739   3.361
14909SI     SI114909   8.921   1.310   7.682
14910SI     SI114910   2.012   9.482   2.191
14911SI     SI114911   9.076   8.896   1.847
14912SI     SI114912   1.665   8.804   1.639
14913SI     SI114913   9.452   1.069   0.971
14914SI     SI114914   7.524   0.594   7.281
14915SI     SI114915   2.587   0.516   0.506
14916SI     SI114916   0.227   0.187   1.751
14917SI     SI114917   7.017   1.036   6.028
14918SI     SI114918   1.497   1.329   3.847
14919SI     SI114919   2.728   8.491   5.304
14920SI     SI114920   4.929   8.427   5.548
14921SI     SI114921   3.959   9.412   2.011
14922SI     SI114922   5.547   1.212   1.510
14923SI     SI114923   4.903   8.631   6.974
14924SI     SI114924   8.795   8.342   9.438
14925SI     SI114925   7.115   9.369   7.613
14926SI     SI114926   7.986   0.776   1.889
14927SI     SI114927   1.999   9.472   5.708
14928SI     SI114928   0.281   9.431   8.199
14929SI     SI114929   0.288   0.529   4.763
14930SI     SI114930   3.003   0.777   7.488
14931SI     SI114931   0.755   0.079   3.614
14932SI     SI114932   6.594   8.973   1.679
14933SI     SI114933   8.879   8.303   0.995
14934SI     SI114934   1.424   8.329   6.037
14935SI     SI114935   2.210   9.324   5.883
14936SI     SI114936   8.332   8.430   3.110
14937SI     SI114937   2.182   9.197   7.656
14938SI     SI114938   1.114   0.283   4.075
14939SI     SI114939   6.477   9.016   9.325
14940SI     SI114940   1.052   8.539   0.359
14941SI     SI114941   8.377   9.446   2.046
14942SI     SI114942   9.430   8.786   9.068
14943SI     SI114943   7.051   9.440   0.909
14944SI     SI114944   1.604   0.474   8.648
14945SI     SI114945   0.597   0.381   9.577
14946SI     SI114946   3.029   8.506   7.185
14947SI     SI114947   4.086   0.800   8.225
14948SI     SI114948   3.292   0.092   1.769
14949SI     SI114949   7.328   9.202   3.898
14950SI     SI114950   0.749   0.607   5.480
14951SI     SI114951   8.642   1.065   9.501
14952SI     SI114952   6.034   1.328   1.592
14953SI     SI114953   2.030   0.320   3.387
14954SI     SI114954   0.425   9.386   2.899
14955SI     SI114955   3.757   8.546   9.051
14956SI     SI114956   1.086   0.022   7.244
14957SI     SI114957   2.972   8.431   0.147
14958SI     SI114958   1.082   0.696   8.296
14959SI     SI114959   3.036   9.493   0.979
14960SI     SI114960   5.337   8.752   7.497
14961SI     SI114961   1.712   0.635   3.740
14962SI     SI114962   4.388   0.840   1.550
14963SI     SI114963   3.052   8.998   6.937
14964SI     SI114964   4.394   0.619   0.211
14965SI     SI114965   5.882   8.662   3.980
14966SI     SI114966   7.702   8.680   8.657
14967SI     SI114967   7.924   0.974   1.675
14968SI     SI114968   4.541   0.509   8.136
14969SI     SI114969   1.332   0.616   6.798
14970SI     SI114970   2.286   8.775   6.271
14971SI     SI114971   6.269   0.124   6.645
14972SI     SI114972   6.155   0.681   5.502
14973SI     SI114973   4.103   0.136   7.599
14974SI     SI114974   0.495   0.759   9.395
14975SI     SI114975   8.858   8.453   7.789
14976SI     SI114976   2.798   1.076   4.942
14977SI     SI114977   6.133   9.096   3.370
14978SI     SI114978   1.225   9.356   8.105
14979SI     SI114979   1.909   0.958   8.539
14980SI     SI114980   5.083   0.259   2.599
14981SI     SI114981   5.718   9.156   6.500
14982SI     SI114982   4.215   0.535   0.593
14983SI     SI114983   2.752   9.261   2.534
14984SI     SI114984   9.202   0.300   6.754
14985SI     SI114985   4.020   0.149   0.218
14986SI     SI114986   6.744   1.125   3.158
14987SI     SI114987   4.464   8.717   6.670
14988SI     SI114988   7.934   0.382   1.119
14989SI     SI114989   2.887   1.264   3.672
14990SI     SI114990   1.242   9.548   5.506
14991SI     SI114991   6.878   8.816   0.771
14992SI     SI114992   6.566   8.353   2.640
14993SI     SI114993   2.952   8.821   9.501
14994SI     SI114994   7.548   9.347   8.433
14995SI     SI114995   6.946   1.142   3.727
14996SI     SI114996   6.098   8.889   6.684
14997SI     SI114997   2.852   8.492   1.167
14998SI     SI114998   5.644   8.813   0.150
14999SI     SI114999   5.174   9.366   2.272
15000SI     SI115000   2.678   0.534   5.074
15001SI     SI115001   4.056   8.715   6.570
15002SI     SI115002   7.178   8.802   4.949
15003SI     SI115003   3.455   0.402   6.270
15004SI     SI115004   7.821   9.077   7.575
15005SI     SI115005   8.135   0.977   1.231
15006SI     SI115006   2.840   8.309   9.486
15007SI     SI115007   7.349   9.529   7.532
15008SI     SI115008   6.710   9.381   3.016
15009SI     SI115009   1.833   1.351   0.516
15010SI     SI115010   4.698   9.281   2.944
15011SI     SI115011   8.699   9.513   5.079
15012SI     SI115012   4.482   1.204   4.817
15013SI     SI115013   7.814   0.448   0.855
15014SI     SI115014   3.469   8.825   9.386
15015SI     SI115015   0.130   9.394   4.331
15016SI     SI115016   6.158   0.403   7.806
15017SI     SI115017   8.158   8.709   7.769
15018SI     SI115018   3.867   0.024   7.206
15019SI     SI115019   1.168   0.044   0.731
15020SI     SI115020   1.493   8.661   0.690
15021SI     SI115021   6.019   0.735   7.513
15022SI     SI115022   1.743   0.378   4.938
15023SI     SI115023   8.840   0.959   2.514
15024SI     SI115024   8.428   1.189   6.614
15025SI     SI115025   4.656   9.183   3.929
15026SI     SI115026   5.575   8.643   5.337
15027SI     SI115027   5.445   0.555   8.469
15028SI     SI115028   1.418   0.266   8.732
15029SI     SI115029   9.162   0.033   9.235
15030SI     SI115030   0.766   0.028   3.116
15031SI     SI115031   8.962   9.277   8.965
15032SI     SI115032   5.065   0.865   0.952
15033SI     SI115033   8.669   8.371   1.468
15034SI     SI115034   7.730   8.598   3.139
15035SI     SI115035   6.467   9.046   4.181
15036SI     SI115036   4.878   0.165   8.193
15037SI     SI115037   1.518   9.269   6.523
15038SI     SI115038   6.325   8.605   1.456
15039SI     SI115039   6.207   1.175   4.601
15040SI     SI115040   0.228   1.008   4.162
15041SI     SI115041   0.143   8.808   3.711
15042SI     SI115042   2.376   0.429   7.715
15043SI     SI115043   8.159   8.618   8.509
15044SI     SI115044   6.923   1.271   1.239
15045SI     SI115045   3.337   0.669   5.901
15046SI     SI115046   3.761   0.119   2.995
15047SI     SI115047   5.477   8.869   4.362
15048SI     SI115048   0.963   9.015   5.172
15049SI     SI115049   1.293   0.777   0.439
15050SI     SI115050   0.088   9.427   7.422
15051SI     SI115051   5.693   9.526   0.702
15052SI     SI115052   4.678   1.089   5.281
15053SI     SI115053   0.085   0.279   0.807
15054SI     SI115054   6.541   9.196   4.796
15055SI     SI115055   0.791   1.233   6.217
15056SI     SI115056   5.566   0.136   1.033
15057SI     SI115057   8.332   9.580   0.391
15058SI     SI115058   0.190   9.136   8.115
15059SI     SI115059   8.685   8.621   7.285
15060SI     SI115060   8.803   0.416   7.278
15061SI     SI115061   3.733   1.097   8.523
15062SI     SI115062   1.312   8.704   4.305
15063SI     SI115063   2.118   0.104   6.298
15064SI     SI115064   5.511   0.224   5.712
15065SI     SI115065   6.557   0.919   5.941
15066SI     SI115066   3.710   8.805   9.199
15067SI     SI115067   2.155   0.185   1.852
15068SI     SI115068   3.730   9.334   1.812
15069SI     SI115069   0.672   9.213   8.196
15070SI     SI115070   8.055   8.926   4.150
15071SI     SI115071   6.968   0.379   0.656
15072SI     SI115072   2.002   0.381   4.570
15073SI     SI115073   8.484   8.812   8.779
15074SI     SI115074   1.589   9.161   2.420
15075SI     SI115075   1.416   0.319   0.363
15076SI     SI115076   4.416   0.379   3.117
15077SI     SI115077   1.337   8.869   5.874
15078SI     SI115078   9.298   8.620   7.990
15079SI     SI115079   8.636   8.420   1.155
15080SI     SI115080   7.094   1.304   2.685
15081SI     SI115081   7.583   8.711   9.416
15082SI     SI115082   0.625   1.232   2.345
15083SI     SI115083   2.781   0.009   7.395
15084SI     SI115084   7.654   8.410   2.539
15085SI     SI115085   3.949   8.802   2.551
15086SI     SI115086   0.802   8.645   6.215
15087SI     SI115087   6.792   0.007   5.420
15088SI     SI115088   0.720   9.072   6.459
15089SI     SI115089   0.946   0.034   7.752
15090SI     SI115090   6.130   8.410   0.917
15091SI     SI115091   4.276   9.186   8.108
15092SI     SI115092   2.440   8.962   0.756
15093SI     SI115093   1.530   1.173   9.243
15094SI     SI115094   2.035   8.533   1.811
15095SI     SI115095   8.440   0.521   2.090
15096SI     SI115096   7.417   8.247   0.597
15097SI     SI115097   2.076   0.533   2.799
15098SI     SI115098   6.687   8.769   8.508
15099SI     SI115099   7.312   0.695   7.966
15100SI     SI115100   0.166   0.507   8.063
15101SI     SI115101   3.375   0.274   2.183
15102SI     SI115102   8.746   0.375   3.881
15103SI     SI115103   4.410   1.258   4.011
15104SI     SI115104   3.078   0.306   1.163
15105SI     SI115105   0.037   8.711   8.352
15106SI     SI115106   3.690   0.128   6.984
15107SI     SI115107   5.028   0.549   7.598
15108SI     SI115108   2.240   8.544   3.522
15109SI     SI115109   8.550   9.376   2.275
15110SI     SI115110   6.392   8.529   5.637
15111SI     SI115111   1.234   0.516   3.434
15112SI     SI115112   3.019   8.409   3.442
15113SI     SI115113   1.566   0.049   8.561
15114SI     SI115114   1.146   9.056   4.561
15115SI     SI115115   6.652   0.924   0.872
15116SI     SI115116   5.120   8.718   0.689
15117SI     SI115117   8.290   1.061   2.689
15118SI     SI115118   5.121   0.634   5.166
15119SI     SI115119   6.353   0.486   9.546
15120SI     SI115120   2.880   8.474   7.460
15121SI     SI115121   2.217   1.071   9.372
15122SI     SI115122   7.135   0.307   7.389
15123SI     SI115123   1.049   8.215   1.281
15124SI     SI115124   8.426   1.159   4.834
15125SI     SI115125   4.989   9.123   1.307
15126SI     SI115126   3.474   0.796   5.160
15127SI     SI115127   6.108   0.371   6.583
15128SI     SI115128   6.349   8.468   4.753
15129SI     SI115129   7.838   9.291   4.952
15130SI     SI115130   5.956   8.956   3.908
15131SI     SI115131   1.810   9.144   0.745
15132SI     SI115132   5.386   8.866   7.218
15133SI     SI115133   2.181   1.224   7.227
15134SI     SI115134   0.696   0.876   5.934
15135SI     SI115135   9.472   0.434   3.654
15136SI     SI115136   8.457   8.847   7.302
15137SI     SI115137   3.616   0.390   7.475
15138SI     SI115138   5.380   0.417   4.549
15139SI     SI115139   1.701   9.481   1.772
15140SI     SI115140   6.381   8.406   7.187
15141SI     SI115141   3.775   1.185   2.480
15142SI     SI115142   0.765   8.466   5.050
15143SI     SI115143   3.465   9.117   5.186
15144SI     SI115144   3.629   9.571   8.035
15145SI     SI115145   2.052   0.758   4.971
15146SI     SI115146   3.072   8.756   8.658
15147SI     SI115147   1.528   8.736   2.158
15148SI     SI115148   3.781   8.447   3.361
15149SI     SI115149   8.690   0.448   7.565
15150SI     SI115150   1.450   0.701   1.006
15151SI     SI115151   5.346   0.750   2.475
15152SI     SI115152   3.440   0.381   3.297
15153SI     SI115153   5.311   0.064   1.901
15154SI     SI115154   8.222   1.237   3.293
15155SI     SI115155   2.467   9.061   7.278
15156SI     SI115156   7.553   9.399   1.826
15157SI     SI115157   2.464   0.511   3.508
15158SI     SI115158   3.194   8.311   4.524
15159SI     SI115159   2.023   0.363   2.070
15160SI     SI115160   7.617   0.179   2.749
15161SI     SI115161   0.507   0.564   3.546
15162SI     SI115162   3.347   8.937   6.919
15163SI     SI115163   8.810   0.832   7.841
15164SI     SI115164   7.264   9.047   4.375
15165SI     SI115165   2.647   0.003   8.242
15166SI     SI115166   2.637   9.451   0.735
15167SI     SI115167   2.882   9.011   8.701
15168SI     SI115168   1.297   0.449   0.885
15169SI     SI115169   3.974   8.623   3.493
15170SI     SI115170   7.785   0.930   2.863
15171SI     SI115171   2.232   0.954   1.436
15172SI     SI115172   5.674   9.040   3.862
15173SI     SI115173   8.438   8.286   7.708
15174SI     SI115174   8.239   0.157   7.346
15175SI     SI115175   8.868   8.426   6.524
15176SI     SI115176   0.710   1.116   1.181
15177SI     SI115177   6.264   0.965   9.508
15178SI     SI115178   3.805   8.218   1.173
15179SI     SI115179   7.137   1.243   6.491
15180SI     SI115180   8.705   9.587   9.279
15181SI     SI115181   8.751   0.385   4.888
15182SI     SI115182   5.217   0.915   3.218
15183SI     SI115183   4.078   1.100   1.284
15184SI     SI115184   2.617   1.311   7.492
15185SI     SI115185   8.490   9.431   1.128
15186SI     SI115186   2.532   0.709   1.227
15187SI     SI115187   3.417   1.115   3.725
15188SI     SI115188   1.189   8.527   0.871
15189SI     SI115189   0.799   0.038   5.661
15190SI     SI115190   4.890   9.308   2.393
15191SI     SI115191   0.820   0.838   0.524
15192SI     SI115192   6.417   9.284   0.430
15193SI     SI115193   7.918   8.209   4.475
15194SI     SI115194   7.660   0.005   1.075
15195SI     SI115195   4.803   1.086   3.229
15196SI     SI115196   0.931   9.349   2.228
15197SI     SI115197   0.190   9.123   1.951
15198SI     SI115198   1.545   0.873   3.770
15199SI     SI115199   3.376   0.597   3.085
15200SI     SI115200   2.928   0.704   9.399
15201SI     SI115201   5.924   8.798   0.305
15202SI     SI115202   5.192   9.218   3.101
15203SI     SI115203   1.437   9.047   4.678
15204SI     SI115204   5.049   9.145   3.553
15205SI     SI115205   1.978   0.860   3.159
15206SI     SI115206   8.578   0.645   7.759
15207SI     SI115207   0.248   0.071   2.035
15208SI     SI115208   7.642   8.902   2.056
15209SI     SI115209   6.607   8.774   3.136
15210SI     SI115210   6.666   8.599   9.019
15211SI     SI115211   1.863   8.677   5.527
15212SI     SI115212   4.462   9.099   0.085
15213SI     SI115213   4.522   0.962   8.629
15214SI     SI115214   0.084   8.504   2.364
15215SI     SI115215   2.147   0.831   6.254
15216SI     SI115216   2.975   8.844   2.122
15217SI     SI115217   4.354   9.152   1.068
15218SI     SI115218   6.154   0.015   5.764
15219SI     SI115219   7.171   0.211   1.975
15220SI     SI115220   3.641   0.688   5.974
15221SI     SI115221   0.548   0.290   1.093
15222SI     SI115222   9.233   0.164   0.216
15223SI     SI115223   1.155   9.478   8.805
15224SI     SI115224   9.295   8.916   1.420
15225SI     SI115225   0.654   8.956   2.440
15226SI     SI115226   0.778   0.883   6.471
15227SI     SI115227   0.539   0.343   7.763
15228SI     SI115228   2.813   0.273   4.961
15229SI     SI115229   4.074   1.160   5.691
15230SI     SI115230   0.268   1.061   2.135
15231SI     SI115231   9.511   9.602   4.704
15232SI     SI115232   3.500   8.815   7.719
15233SI     SI115233   2.310   9.114   3.434
15234SI     SI115234   0.340   8.474   2.183
15235SI     SI115235   1.425   8.563   8.357
15236SI     SI115236   2.504   9.104   4.114
15237SI     SI115237   1.816   0.102   9.026
15238SI     SI115238   6.307   0.464   7.077
15239SI     SI115239   6.390   9.491   1.520
15240SI     SI115240   9.369   8.961   7.249
15241SI     SI115241   7.894   9.459   3.999
15242SI     SI115242   8.673   0.435   3.139
15243SI     SI115243   7.582   9.565   3.125
15244SI     SI115244   4.216   9.407   2.576
15245SI     SI115245   7.894   9.196   7.862
15246SI     SI115246   3.272   9.133   6.321
15247SI     SI115247   4.793   9.269   6.180
15248SI     SI115248   3.943   0.577   0.739
15249SI     SI115249   7.399   9.382   4.144
15250SI     SI115250   1.620   8.992   4.153
15251SI     SI115251   7.862   8.652   7.408
15252SI     SI115252   1.311   8.959   2.108
15253SI     SI115253   6.012   0.477   2.869
15254SI     SI115254   0.026   9.369   6.385
15255SI     SI115255   8.622   8.683   0.814
15256SI     SI115256   3.901   8.622   4.234
15257SI     SI115257   4.753   9.255   8.357
15258SI     SI115258   9.428   0.930   0.705
15259SI     SI115259   8.164   0.403   2.465
15260SI     SI115260   1.939   0.295   3.674
15261SI     SI115261   6.385   8.896   4.437
15262SI     SI115262   6.644   9.555   0.228
15263SI     SI115263   4.203   1.126   2.599
15264SI     SI115264   7.778   8.814   9.187
15265SI     SI115265   5.076   9.308   1.071
15266SI     SI115266   2.352   0.397   0.085
15267SI     SI115267   8.139   1.182   5.181
15268SI     SI115268   4.398   0.491   3.933
15269SI     SI115269   2.265   0.481   2.551
15270SI     SI115270   5.921   8.271   7.417
15271SI     SI115271   3.240   0.020   8.467
15272SI     SI115272   4.356   9.282   8.873
15273SI     SI115273   3.654   8.631   0.758
15274SI     SI115274   9.566   8.741   5.667
15275SI     SI115275   2.572   1.003   6.744
15276SI     SI115276   1.463   0.805   3.081
15277SI     SI115277   0.911   8.444   3.522
15278SI     SI115278   5.885   8.735   7.341
15279SI     SI115279   0.674   9.196   6.181
15280SI     SI115280   4.348   8.834   3.628
15281SI     SI115281   4.493   1.235   2.280
15282SI     SI115282   5.749   9.042   2.772
15283SI     SI115283   1.598   8.551   8.826
15284SI     SI115284   3.584   0.315   8.455
15285SI     SI115285   8.404   9.538   6.001
15286SI     SI115286   0.037   0.491   5.883
15287SI     SI115287   8.842   9.131   4.736
15288SI     SI115288   1.474   9.567   4.725
15289SI     SI115289   8.192   0.505   5.248
15290SI     SI115290   6.760   0.183   2.675
15291SI     SI115291   2.356   8.643   4.139
15292SI     SI115292   4.630   0.219   6.318
15293SI     SI115293   3.052   9.274   8.760
15294SI     SI115294   4.383   8.883   9.268
15295SI     SI115295   8.191   8.906   4.572
15296SI     SI115296   7.406   8.552   9.228
15297SI     SI115297   8.558   8.759   9.305
15298SI     SI115298   5.160   9.113   2.816
15299SI     SI115299   2.495   9.288   4.808
15300SI     SI115300   0.893   8.713   1.248
15301SI     SI115301   1.397   9.344   2.910
15302SI     SI115302   0.692   9.492   0.631
15303SI     SI115303   3.671   9.231   9.185
15304SI     SI115304   2.050   0.850   5.694
15305SI     SI115305   2.847   9.448   8.404
15306SI     SI115306   0.721   1.074   7.054
15307SI     SI115307   7.782   0.011   6.971
15308SI     SI115308   5.779   0.990   6.673
15309SI     SI115309   7.124   1.065   5.728
15310SI     SI115310   2.481   9.288   7.705
15311SI     SI115311   4.318   0.622   8.540
15312SI     SI115312   4.868   0.660   3.493
15313SI     SI115313   6.196   1.194   7.184
15314SI     SI115314   4.552   9.087   8.743
15315SI     SI115315   9.494   0.264   7.485
15316SI     SI115316   7.231   9.088   6.802
15317SI     SI115317   1.543   0.431   8.345
15318SI     SI115318   1.426   8.995   3.896
15319SI     SI115319   9.557   9.014   5.514
15320SI     SI115320   4.386   8.945   2.644
15321SI     SI115321   2.547   8.155   4.015
15322SI     SI115322   3.827   9.605   4.181
15323SI     SI115323   5.174   1.321   9.281
15324SI     SI115324   2.725   0.095   7.984
15325SI     SI115325   2.324   8.961   2.363
15326SI     SI115326   8.866   0.397   6.469
15327SI     SI115327   6.807   9.187   1.661
15328SI     SI115328   0.560   0.507   8.455
15329SI     SI115329   0.504   0.971   8.644
15330SI     SI115330   1.233   8.796   0.602
15331SI     SI115331   8.648   0.648   8.926
15332SI     SI115332   2.141   8.723   7.433
15333SI     SI115333   0.527   0.756   0.560
15334SI     SI115334   2.800   8.392   2.340
15335SI     SI115335   8.894   9.062   8.262
15336SI     SI115336   7.895   0.616   0.594
15337SI     SI115337   4.229   8.798   7.712
15338SI     SI115338   1.943   0.563   7.567
15339SI     SI115339   7.982   8.946   8.261
15340SI     SI115340   6.112   0.883   4.635
15341SI     SI115341   6.247   8.737   2.363
15342SI     SI115342   0.435   1.344   3.079
15343SI     SI115343   4.596   0.048   8.200
15344SI     SI115344   1.867   0.044   7.157
15345SI     SI115345   1.535   1.128   4.880
15346SI     SI115346   2.655   8.678   8.876
15347SI     SI115347   8.107   9.376   4.406
15348SI     SI115348   5.013   8.552   1.421
15349SI     SI115349   5.663   0.813   7.862
15350SI     SI115350   3.396   8.907   0.476
15351SI     SI115351   5.375   0.706   6.762
15352SI     SI115352   1.827   1.395   4.900
15353SI     SI115353   3.073   0.732   5.322
15354SI     SI115354   4.200   8.767   3.132
15355SI     SI115355   5.441   8.622   7.021
15356SI     SI115356   0.859   0.358   2.487
15357SI     SI115357   8.725   8.755   0.157
15358SI     SI115358   5.671   9.449   5.035
15359SI     SI115359   9.529   8.607   2.825
15360SI     SI115360   5.456   0.359   7.812
15361SI     SI115361   0.670   9.188   7.681
15362SI     SI115362   6.429   9.025   0.586
15363SI     SI115363   6.605   0.301   5.811
15364SI     SI115364   4.263   9.456   1.074
15365SI     SI115365   2.758   8.496   4.240
15366SI     SI115366   5.586   0.679   7.195
15367SI     SI115367   9.052   9.310   4.826
15368SI     SI115368   0.800   0.298   8.895
15369SI     SI115369   0.497   0.965   4.975
15370SI     SI115370   4.211   0.450   4.591
15371SI     SI115371   4.665   0.416   0.510
15372SI     SI115372   2.931   0.175   2.840
15373SI     SI115373   6.011   1.056   8.093
15374SI     SI115374   8.518   0.484   8.003
15375SI     SI115375   6.237   0.446   6.312
15376SI     SI115376   5.466   9.424   3.578
15377SI     SI115377   1.740   9.119   5.494
15378SI     SI115378   1.574   9.249   4.303
15379SI     SI115379   6.421   9.452   5.741
15380SI     SI115380   9.166   0.386   6.473
15381SI     SI115381   0.241   8.986   3.926
15382SI     SI115382   4.208   0.236   2.934
15383SI     SI115383   2.860   9.279   6.110
15384SI     SI115384   8.446   0.484   2.376
15385SI     SI115385   1.430   0.464   6.094
15386SI     SI115386   4.614   8.778   6.216
15387SI     SI115387   6.574   0.427   2.597
15388SI     SI115388   0.460   8.878   2.241
15389SI     SI115389   6.009   9.034   5.902
15390SI     SI115390   0.442   0.694   7.448
15391SI     SI115391   7.295   1.098   7.610
15392SI     SI115392   8.027   8.619   4.230
15393SI     SI115393   5.432   8.579   6.307
15394SI     SI115394   4.057   0.712   0.978
15395SI     SI115395   4.181   8.669   0.558
15396SI     SI115396   3.566   0.773   3.962
15397SI     SI115397   3.252   1.366   3.427
15398SI     SI115398   3.885   0.925   1.133
15399SI     SI115399   2.213   9.039   4.098
15400SI     SI115400   1.489   8.547   6.468
15401SI     SI115401   4.032   0.868   2.681
15402SI     SI115402   4.445   8.821   2.199
15403SI     SI115403   7.831   8.649   4.461
15404SI     SI115404   3.200   9.055   4.472
15405SI     SI115405   1.404   0.021   2.570
15406SI     SI115406   5.111   8.809   1.586
15407SI     SI115407   4.661   1.114   6.481
15408SI     SI115408   0.704   0.795   7.126
15409SI     SI115409   1.216   9.434   2.243
15410SI     SI115410   2.135   8.540   8.954
15411SI     SI115411   5.140   8.426   3.730
15412SI     SI115412   2.864   0.150   5.680
15413SI     SI115413   2.205   0.291   2.320
15414SI     SI115414   1.310   8.532   8.771
15415SI     SI115415   3.476   0.075   0.999
15416SI     SI115416   9.179   9.038   8.212
15417SI     SI115417   3.110   0.926   6.480
15418SI     SI115418   1.171   9.269   5.560
15419SI     SI115419   8.101   8.525   9.019
15420SI     SI115420   7.877   0.933   3.307
15421SI     SI115421   3.978   9.262   0.839
15422SI     SI115422   8.210   8.359   0.875
15423SI     SI115423   4.515   8.369   5.790
15424SI     SI115424   5.252   0.192   3.757
15425SI     SI115425   3.353   9.327   4.389
15426SI     SI115426   4.128   9.035   4.879
15427SI     SI115427   1.917   8.940   3.622
15428SI     SI115428   8.372   1.216   5.884
15429SI     SI115429   5.755   8.388   8.008
15430SI     SI115430   4.029   0.765   6.385
15431SI     SI115431   2.372   9.231   2.786
15432SI     SI115432   7.595   0.728   9.461
15433SI     SI115433   2.169   9.270   1.721
15434SI     SI115434   1.119   8.474   2.778
15435SI     SI115435   3.561   0.894   9.484
15436SI     SI115436   6.964   0.604   4.710
15437SI     SI115437   9.595   0.926   5.601
15438SI     SI115438   6.765   0.187   3.248
15439SI     SI115439   0.447   0.020   6.727
15440SI     SI115440   0.609   0.133   8.180
15441SI     SI115441   2.162   8.500   6.636
15442SI     SI115442   5.314   0.157   2.755
15443SI     SI115443   4.151   0.529   1.619
15444SI     SI115444   6.451   1.344   3.895
15445SI     SI115445   9.339   9.322   5.194
15446SI     SI115446   3.109   0.579   1.887
15447SI     SI115447   0.269   0.270   4.151
15448SI     SI115448   4.205   9.210   1.656
15449SI     SI115449   2.917   8.758   6.501
15450SI     SI115450   8.359   0.921   5.807
15451SI     SI115451   2.962   0.065   3.935
15452SI     SI115452   6.627   0.247   6.104
15453SI     SI115453   1.425   8.613   7.133
15454SI     SI115454   4.673   0.423   2.717
15455SI     SI115455   7.717   8.807   1.095
15456SI     SI115456   3.464   0.457   2.408
15457SI     SI115457   4.922   9.437   5.757
15458SI     SI115458   4.366   1.150   1.830
15459SI     SI115459   8.870   8.393   5.296
15460SI     SI115460   8.920   0.363   5.296
15461SI     SI115461   5.596   8.416   0.413
15462SI     SI115462   3.932   0.946   7.550
15463SI     SI115463   6.922   0.869   0.995
15464SI     SI115464   3.936   0.902   5.691
15465SI     SI115465   5.307   9.278   0.194
15466SI     SI115466   6.113   9.422   8.271
15467SI     SI115467   2.792   0.350   0.157
15468SI     SI115468   8.682   9.424   8.008
15469SI     SI115469   7.306   0.787   7.201
15470SI     SI115470   1.495   0.429   4.765
15471SI     SI115471   3.424   8.697   8.473
15472SI     SI115472   5.299   8.650   4.942
15473SI     SI115473   5.841   9.257   1.977
15474SI     SI115474   7.728   1.221   4.481
15475SI     SI115475   7.239   1.114   6.228
15476SI     SI115476   5.355   1.298   1.982
15477SI     SI115477   7.067   8.949   0.979
15478SI     SI115478   0.535   9.328   4.489
15479SI     SI115479   3.879   0.344   3.388
15480SI     SI115480   5.257   0.198   0.102
15481SI     SI115481   8.095   9.342   2.107
15482SI     SI115482   7.188   1.177   3.935
15483SI     SI115483   8.955   0.334   2.110
15484SI     SI115484   7.122   0.830   2.011
15485SI     SI115485   2.767   9.477   0.213
15486SI     SI115486   3.568   0.175   1.261
15487SI     SI115487   0.609   8.349   3.194
15488SI     SI115488   2.042   0.352   0.962
15489SI     SI115489   8.987   0.266   0.069
15490SI     SI115490   5.805   9.255   2.547
15491SI     SI115491   0.887   8.621   7.927
15492SI     SI115492   3.715   0.108   0.286
15493SI     SI115493   8.945   0.903   2.220
15494SI     SI115494   6.700   0.460   4.757
15495SI     SI115495   4.564   0.623   5.270
15496SI     SI115496   9.099   0.905   2.673
15497SI     SI115497   4.731   0.869   3.017
15498SI     SI115498   3.635   9.477   3.964
15499SI     SI115499   7.990   1.251   4.930
15500SI     SI115500   9.371   9.142   2.762
15501SI     SI115501   1.855   0.044   6.188
15502SI     SI115502   7.672   8.607   3.687
15503SI     SI115503   4.067   0.937   2.135
15504SI     SI115504   6.849   8.318   0.690
15505SI     SI115505   7.394   9.529   6.593
15506SI     SI115506   6.428   1.013   2.742
15507SI     SI115507   6.392   0.911   7.780
15508SI     SI115508   0.860   8.816   9.097
15509SI     SI115509   6.670   9.186   0.933
15510SI     SI115510   1.075   8.877   4.926
15511SI     SI115511   7.567   9.450   0.385
15512SI     SI115512   2.728   9.036   6.249
15513SI     SI115513   8.446   9.543   8.994
15514SI     SI115514   2.221   9.392   1.430
15515SI     SI115515   1.820   9.024   6.928
15516SI     SI115516   7.536   9.088   2.916
15517SI     SI115517   0.766   0.658   2.549
15518SI     SI115518   4.328   0.530   9.237
15519SI     SI115519   3.063   0.585   3.010
15520SI     SI115520   6.263   9.556   8.503
15521SI     SI115521   3.098   8.803   4.896
15522SI     SI115522   4.208   1.099   0.662
15523SI     SI115523   6.454   9.074   5.063
15524SI     SI115524   4.929   1.005   8.423
15525SI     SI115525   8.132   8.847   5.160
15526SI     SI115526   4.144   8.471   9.228
15527SI     SI115527   4.681   8.707   1.702
15528SI     SI115528   7.463   8.684   6.814
15529SI     SI115529   5.989   9.082   0.896
15530SI     SI115530   6.507   0.907   4.359
15531SI     SI115531   1.678   9.317   2.972
15532SI     SI115532   3.280   0.903   8.588
15533SI     SI115533   6.716   1.088   2.844
15534SI     SI115534   1.868   1.371   1.199
15535SI     SI115535   7.374   8.535   0.173
15536SI     SI115536   3.870   8.975   1.891
15537SI     SI115537   8.660   0.580   1.911
15538SI     SI115538   7.989   8.265   6.174
15539SI     SI115539   9.100   1.196   9.030
15540SI     SI115540   7.697   9.267   4.157
15541SI     SI115541   6.105   0.369   4.230
15542SI     SI115542   5.309   8.547   3.093
15543SI     SI115543   7.390   1.018   0.756
15544SI     SI115544   1.424   0.223   4.570
15545SI     SI115545   0.520   9.443   7.730
15546SI     SI115546   4.643   9.135   4.399
15547SI     SI115547   4.804   0.190   2.129
15548SI     SI115548   2.149   8.917   8.375
15549SI     SI115549   3.142   1.179   2.365
15550SI     SI115550   2.601   9.154   3.820
15551SI     SI115551   3.961   8.428   6.661
15552SI     SI115552   0.652   8.336   6.484
15553SI     SI115553   9.520   9.205   3.929
15554SI     SI115554   7.492   1.150   0.491
15555SI     SI115555   3.931   8.828   9.411
15556SI     SI115556   9.280   8.842   2.398
15557SI     SI115557   9.347   0.941   2.481
15558SI     SI115558   5.714   9.340   6.984
15559SI     SI115559   1.737   8.600   4.835
15560SI     SI115560   0.272   0.284   4.457
15561SI     SI115561   0.386   9.162   0.696
15562SI     SI115562   0.618   1.060   7.761
15563SI     SI115563   2.266   1.368   5.964
15564SI     SI115564   3.152   0.539   9.249
15565SI     SI115565   9.281   1.186   2.019
15566SI     SI115566   0.041   0.730   0.582
15567SI     SI115567   6.039   0.925   6.526
15568SI     SI115568   6.084   8.525   4.159
15569SI     SI115569   4.780   0.952   2.487
15570SI     SI115570   1.873   8.967   8.941
15571SI     SI115571   8.565   0.017   6.500
15572SI     SI115572   9.353   0.815   5.143
15573SI     SI115573   2.203   0.242   6.814
15574SI     SI115574   6.156   1.176   2.785
15575SI     SI115575   6.465   1.381   1.440
15576SI     SI115576   3.282   9.592   3.100
15577SI     SI115577   7.255   9.294   0.728
15578SI     SI115578   3.040   8.840   5.191
15579SI     SI115579   7.723   1.134   5.034
15580SI     SI115580   8.662   0.227   5.356
15581SI     SI115581   2.661   8.527   4.731
15582SI     SI115582   9.147   0.097   0.648
15583SI     SI115583   0.524   1.279   7.101
15584SI     SI115584   1.845   8.835   8.425
15585SI     SI115585   8.223   0.292   1.132
15586SI     SI115586   2.162   0.975   7.703
15587SI     SI115587   3.002   8.545   3.176
15588SI     SI115588   1.438   9.083   6.768
15589SI     SI115589   9.050   0.748   5.947
15590SI     SI115590   5.742   8.342   8.457
15591SI     SI115591   7.413   8.786   7.731
15592SI     SI115592   0.166   1.236   2.735
15593SI     SI115593   6.761   1.400   6.314
15594SI     SI115594   6.119   0.098   5.253
15595SI     SI115595   5.486   8.659   2.569
15596SI     SI115596   5.879   1.145   2.713
15597SI     SI115597   1.205   9.277   9.048
15598SI     SI115598   0.152   0.906   0.365
15599SI     SI115599   7.417   0.087   4.182
15600SI     SI115600   6.249   0.357   3.046
15601SI     SI115601   6.737   9.048   0.650
15602SI     SI115602   8.283   9.176   5.531
15603SI     SI115603   2.649   9.582   2.230
15604SI     SI115604   8.979   1.309   3.743
15605SI     SI115605   4.734   9.115   8.974
15606SI     SI115606   6.680   0.612   6.460
15607SI     SI115607   9.356   9.169   8.440
15608SI     SI115608   4.310   9.168   6.254
15609SI     SI115609   1.559   9.106   7.060
15610SI     SI115610   4.034   0.178   5.540
15611SI     SI115611   6.469   1.153   6.120
15612SI     SI115612   6.805   8.981   3.249
15613SI     SI115613   0.668   0.857   1.007
15614SI     SI115614   1.401   0.810   1.717
15615SI     SI115615   0.142   9.447   4.840
15616SI     SI115616   8.042   1.103   2.852
15617SI     SI115617   2.348   9.469   7.248
15618SI     SI115618   3.683   1.017   0.348
15619SI     SI115619   3.034   1.153   6.659
15620SI     SI115620   8.045   0.200   7.591
15621SI     SI115621   8.487   1.130   3.219
15622SI     SI115622   0.416   0.869   0.815
15623SI     SI115623   7.043   0.427   8.782
15624SI     SI115624   7.068   8.835   4.440
15625SI     SI115625   7.304   0.847   6.902
15626SI     SI115626   5.997   0.441   4.859
15627SI     SI115627   0.528   8.795   3.360
15628SI     SI115628   5.442   9.562   7.745
15629SI     SI115629   4.132   0.889   9.436
15630SI     SI115630   2.809   0.770   3.681
15631SI     SI115631   3.337   8.979   0.775
15632SI     SI115632   8.906   1.003   9.174
15633SI     SI115633   7.463   8.989   8.952
15634SI     SI115634   6.747   9.270   3.290
15635SI     SI115635   0.478   0.898   2.920
15636SI     SI115636   9.192   8.365   6.095
15637SI     SI115637   2.051   8.513   2.691
15638SI     SI115638   7.991   9.467   3.412
15639SI     SI115639   3.987   8.523   1.683
15640SI     SI115640   2.112   0.344   8.616
15641SI     SI115641   8.206   8.517   1.660
15642SI     SI115642   3.033   8.844   3.280
15643SI     SI115643   4.868   8.731   5.071
15644SI     SI115644   7.203   8.538   6.886
15645SI     SI115645   5.915   0.102   1.455
15646SI     SI115646   6.688   1.129   4.217
15647SI     SI115647   4.799   8.695   3.462
15648SI     SI115648   0.749   9.040   7.942
15649SI     SI115649   6.281   1.099   6.593
15650SI     SI115650   4.464   0.845   1.837
15651SI     SI115651   4.645   9.120   2.675
15652SI     SI115652   2.422   9.052   6.222
15653SI     SI115653   4.632   9.445   6.623
15654SI     SI115654   1.421   8.635   7.600
15655SI     SI115655   0.239   0.870   3.117
15656SI     SI115656   5.618   8.974   5.690
15657SI     SI115657   6.880   9.563   7.576
15658SI     SI115658   4.771   0.483   5.723
15659SI     SI115659   0.339   0.776   6.349
15660SI     SI115660   8.704   1.074   5.177
15661SI     SI115661   3.229   0.558   1.220
15662SI     SI115662   3.741   0.184   1.674
15663SI     SI115663   8.641   0.492   6.077
15664SI     SI115664   0.819   0.558   8.282
15665SI     SI115665   2.204   9.201   6.829
15666SI     SI115666   7.127   9.343   0.048
15667SI     SI115667   1.035   8.577   4.270
15668SI     SI115668   3.421   8.753   6.224
15669SI     SI115669   3.611   0.192   2.493
15670SI     SI115670   1.204   8.650   6.544
15671SI     SI115671   8.061   1.172   7.353
15672SI     SI115672   5.049   0.367   5.685
15673SI     SI115673   4.919   0.151   3.057
15674SI     SI115674   5.298   8.945   6.762
15675SI     SI115675   8.648   9.192   1.239
15676SI     SI115676   1.397   8.295   0.167
15677SI     SI115677   1.833   0.337   4.309
15678SI     SI115678   7.051   8.650   2.819
15679SI     SI115679   7.872   0.887   1.392
15680SI     SI115680   5.288   1.262   6.808
15681SI     SI115681   9.296   8.747   7.722
15682SI     SI115682   4.672   0.895   7.873
15683SI     SI115683   6.028   0.238   0.981
15684SI     SI115684   6.616   9.003   7.198
15685SI     SI115685   7.482   9.089   1.866
15686SI     SI115686   5.028   0.408   0.102
15687SI     SI115687   4.332   0.013   1.331
15688SI     SI115688   9.312   9.145   7.975
15689SI     SI115689   6.691   9.213   7.909
15690SI     SI115690   5.948   8.843   7.899
15691SI     SI115691   2.375   0.134   5.567
15692SI     SI115692   4.977   9.305   3.309
15693SI     SI115693   0.740   1.384   5.950
15694SI     SI115694   5.164   8.860   9.576
15695SI     SI115695   1.477   0.237   7.295
15696SI     SI115696   1.802   9.350   6.230
15697SI     SI115697   8.430   0.065   5.034
15698SI     SI115698   7.716   9.433   7.818
15699SI     SI115699   7.963   0.230   4.308
15700SI     SI115700   4.086   8.500   3.011
15701SI     SI115701   3.866   0.711   2.471
15702SI     SI115702   0.254   0.396   7.113
15703SI     SI115703   5.772   9.103   8.529
15704SI     SI115704   4.680   8.860   3.231
15705SI     SI115705   2.256   1.213   8.656
15706SI     SI115706   0.442   0.067   1.565
15707SI     SI115707   4.507   0.299   8.340
15708SI     SI115708   1.679   0.168   3.062
15709SI     SI115709   7.478   8.378   4.962
15710SI     SI115710   6.074   0.049   2.151
15711SI     SI115711   8.396   8.839   6.203
15712SI     SI115712   0.536   0.741   6.889
15713SI     SI115713   3.367   1.213   7.526
15714SI     SI115714   0.281   1.091   1.483
15715SI     SI115715   0.108   9.472   8.675
15716SI     SI115716   9.447   9.366   4.192
15717SI     SI115717   1.153   0.762   1.914
15718SI     SI115718   9.168   0.113   2.857
15719SI     SI115719   7.780   9.071   3.708
15720SI     SI115720   8.589   9.380   3.672
15721SI     SI115721   3.506   8.869   1.260
15722SI     SI115722   5.937   0.839   5.075
15723SI     SI115723   1.163   0.530   7.037
15724SI     SI115724   4.511   9.343   2.493
15725SI     SI115725   7.535   0.423   7.033
15726SI     SI115726   9.212   0.552   3.947
15727SI     SI115727   1.004   0.546   4.738
15728SI     SI115728   2.003   0.123   8.420
15729SI     SI115729   4.998   0.017   0.478
15730SI     SI115730   4.098   0.666   5.576
15731SI     SI115731   1.288   9.275   3.887
15732SI     SI115732   4.377   0.832   4.264
15733SI     SI115733   8.675   8.546   6.980
15734SI     SI115734   1.983   9.017   2.725
15735SI     SI115735   6.896   9.050   3.934
15736SI     SI115736   8.428   9.169   9.312
15737SI     SI115737   6.337   0.624   8.880
15738SI     SI115738   2.819   0.110   4.709
15739SI     SI115739   4.740   0.623   3.212
15740SI     SI115740   3.497   0.505   4.061
15741SI     SI115741   3.559   1.011   2.110
15742SI     SI115742   3.152   9.093   3.129
15743SI     SI115743   1.088   0.914   5.684
15744SI     SI115744   2.169   8.972   7.275
15745SI     SI115745   8.031   0.887   9.475
15746SI     SI115746   0.445   9.228   7.120
15747SI     SI115747   2.150   0.655   2.043
15748SI     SI115748   2.473   0.069   8.501
15749SI     SI115749   4.003   0.342   2.737
15750SI     SI115750   7.736   0.930   3.976
15751SI     SI115751   2.128   8.766   6.004
15752SI     SI115752   3.213   8.858   6.432
15753SI     SI115753   8.604   0.407   5.597
15754SI     SI115754   7.758   0.155   7.453
15755SI     SI115755   2.825   0.120   8.832
15756SI     SI115756   5.461   0.026   3.090
15757SI     SI115757   5.539   9.444   4.609
15758SI     SI115758   9.205   8.928   5.979
15759SI     SI115759   2.334   0.544   4.200
15760SI     SI115760   8.705   0.381   8.210
15761SI     SI115761   0.548   0.386   5.404
15762SI     SI115762   0.364   1.152   0.751
15763SI     SI115763   5.421   1.079   3.626
15764SI     SI115764   9.602   9.036   0.985
15765SI     SI115765   5.010   9.108   8.847
15766SI     SI115766   2.013   8.700   2.051
15767SI     SI115767   1.225   8.859   7.486
15768SI     SI115768   6.764   0.910   6.422
15769SI     SI115769   9.078   8.393   4.829
15770SI     SI115770   2.930   8.578   8.868
15771SI     SI115771   7.186   0.949   8.045
15772SI     SI115772   4.125   0.977   1.547
15773SI     SI115773   5.274   9.494   4.132
15774SI     SI115774   7.478   8.509   3.285
15775SI     SI115775   2.679   1.383   5.709
15776SI     SI115776   2.251   9.491   3.750
15777SI     SI115777   5.014   0.752   6.077
15778SI     SI115778   5.815   9.308   4.590
15779SI     SI115779   8.189   8.837   2.026
15780SI     SI115780   2.502   9.027   5.936
15781SI     SI115781   4.065   0.407   5.752
15782SI     SI115782   1.223   8.834   4.061
15783SI     SI115783   3.556   9.127   0.310
15784SI     SI115784   4.613   8.873   0.612
15785SI     SI115785   0.657   8.534   0.076
15786SI     SI115786   3.212   0.251   0.342
15787SI     SI115787   6.375   0.937   8.086
15788SI     SI115788   3.515   0.331   0.368
15789SI     SI115789   7.246   9.221   5.597
15790SI     SI115790   5.181   8.804   5.451
15791SI     SI115791   7.210   0.314   1.434
15792SI     SI115792   2.195   0.490   4.992
15793SI     SI115793   9.594   0.718   7.417
15794SI     SI115794   9.174   1.066   7.265
15795SI     SI115795   2.797   0.436   1.608
15796SI     SI115796   4.630   1.096   7.644
15797SI     SI115797   6.850   0.750   5.636
15798SI     SI115798   6.573   9.262   8.734
15799SI     SI115799   6.373   9.093   6.210
15800SI     SI115800   0.616   8.842   0.114
15801SI     SI115801   5.766   8.431   4.819
15802SI     SI115802   0.990   0.263   9.360
15803SI     SI115803   5.087   8.725   8.025
15804SI     SI115804   0.158   0.775   2.518
15805SI     SI115805   0.020   8.361   3.989
15806SI     SI115806   1.789   0.786   9.378
15807SI     SI115807   0.190   9.121   5.696
15808SI     SI115808   0.000   0.418   0.542
15809SI     SI115809   4.716   8.873   3.980
15810SI     SI115810   8.667   1.064   6.789
15811SI     SI115811   7.274   0.262   2.475
15812SI     SI115812   8.019   8.748   1.043
15813SI     SI115813   5.658   1.054   3.414
15814SI     SI115814   3.355   8.326   1.093
15815SI     SI115815   0.061   0.072   4.443
15816SI     SI115816   0.123   9.356   5.891
15817SI     SI115817   7.831   8.860   1.627
15818SI     SI115818   2.267   8.629   5.759
15819SI     SI115819   5.710   8.499   5.999
15820SI     SI115820   3.751   0.561   7.265
15821SI     SI115821   4.681   0.447   1.717
15822SI     SI115822   0.327   8.921   5.887
15823SI     SI115823   9.519   1.320   0.626
15824SI     SI115824   4.346   9.228   3.904
15825SI     SI115825   5.463   0.655   5.925
15826SI     SI115826   6.084   0.549   7.275
15827SI     SI115827   1.720   0.453   6.213
15828SI     SI115828   2.219   9.278   0.443
15829SI     SI115829   8.050   8.512   6.346
15830SI     SI115830   7.370   0.350   6.304
15831SI     SI115831   0.397   8.630   1.168
15832SI     SI115832   9.138   0.403   4.328
15833SI     SI115833   0.375   8.627   2.669
15834SI     SI115834   9.278   9.592   8.962
15835SI     SI115835   3.641   8.975   2.112
15836SI     SI115836   3.935   9.414   3.590
15837SI     SI115837   8.260   9.295   7.513
15838SI     SI115838   4.039   9.586   9.119
15839SI     SI115839   9.345   9.484   5.621
15840SI     SI115840   4.655   8.584   7.724
15841SI     SI115841   9.236   0.825   4.517
15842SI     SI115842   1.123   9.102   6.743
15843SI     SI115843   6.851   0.228   8.368
15844SI     SI115844   7.082   8.709   5.611
15845SI     SI115845   4.634   8.476   6.317
15846SI     SI115846   7.543   8.882   0.544
15847SI     SI115847   0.829   0.351   0.706
15848SI     SI115848   7.572   8.791   4.119
15849SI     SI115849   1.220   0.918   2.704
15850SI     SI115850   6.714   8.856   9.188
15851SI     SI115851   1.027   8.729   2.645
15852SI     SI115852   2.335   8.284   1.208
15853SI     SI115853   9.211   8.710   8.548
15854SI     SI115854   1.269   0.447   8.275
15855SI     SI115855   1.056   8.564   5.454
15856SI     SI115856   2.826   8.974   1.876
15857SI     SI115857   1.946   9.303   2.832
15858SI     SI115858   5.882   8.823   5.695
15859SI     SI115859   4.416   0.560   2.613
15860SI     SI115860   8.327   8.519   0.461
15861SI     SI115861   1.301   8.732   3.471
15862SI     SI115862   0.129   0.839   4.402
15863SI     SI115863   8.256   8.687   2.496
15864SI     SI115864   1.015   0.660   0.389
15865SI     SI115865   8.039   8.653   6.769
15866SI     SI115866   3.363   0.435   7.292
15867SI     SI115867   1.254   8.795   8.495
15868SI     SI115868   3.107   0.485   8.024
15869SI     SI115869   9.045   9.115   0.074
15870SI     SI115870   0.974   8.993   4.168
15871SI     SI115871   2.071   8.252   8.854
15872SI     SI115872   6.536   0.849   3.840
15873SI     SI115873   5.459   8.671   0.332
15874SI     SI115874   4.772   0.795   1.058
15875SI     SI115875   3.756   8.971   1.595
15876SI     SI115876   4.396   9.316   2.208
15877SI     SI115877   3.518   9.504   1.396
15878SI     SI115878   4.886   8.286   3.674
15879SI     SI115879   0.846   8.460   5.660
15880SI     SI115880   3.008   8.247   5.608
15881SI     SI115881   3.224   0.010   6.271
15882SI     SI115882   9.160   0.633   7.118
15883SI     SI115883   6.112   8.788   4.334
15884SI     SI115884   5.874   9.552   8.871
15885SI     SI115885   7.269   0.437   9.310
15886SI     SI115886   4.101   1.025   7.158
15887SI     SI115887   1.386   8.652   1.678
15888SI     SI115888   7.768   0.631   6.578
15889SI     SI115889   8.094   0.009   2.922
15890SI     SI115890   2.382   8.671   2.266
15891SI     SI115891   6.799   0.708   8.539
15892SI     SI115892   8.504   8.824   6.475
15893SI     SI115893   5.864   0.837   3.515
15894SI     SI115894   3.321   1.004   4.471
15895SI     SI115895   7.932   0.992   4.453
15896SI     SI115896   1.749   9.291   5.727
15897SI     SI115897   3.711   8.864   5.822
15898SI     SI115898   0.131   0.028   5.769
15899SI     SI115899   5.937   8.590   3.269
15900SI     SI115900   4.550   8.555   9.594
15901SI     SI115901   3.880   8.981   5.447
15902SI     SI115902   8.222   1.280   8.624
15903SI     SI115903   4.640   0.614   2.230
15904SI     SI115904   8.797   0.392   9.013
15905SI     SI115905   4.474   8.437   8.463
15906SI     SI115906   6.314   9.238   2.349
15907SI     SI115907   5.178   0.360   1.499
15908SI     SI115908   2.532   9.305   9.328
15909SI     SI115909   0.227   0.836   7.272
15910SI     SI115910   3.434   0.923   7.461
15911SI     SI115911   1.217   0.919   5.422
15912SI     SI115912   4.823   9.248   4.166
15913SI     SI115913   4.912   0.858   9.563
15914SI     SI115914   2.004   0.570   3.816
15915SI     SI115915   4.686   9.062   9.502
15916SI     SI115916   0.662   8.292   3.479
15917SI     SI115917   6.159   0.221   1.896
15918SI     SI115918   3.155   0.213   5.283
15919SI     SI115919   3.689   9.529   5.258
15920SI     SI115920   9.293   1.342   9.230
15921SI     SI115921   1.646   8.590   6.913
15922SI     SI115922   4.785   9.263   3.655
15923SI     SI115923   5.264   0.880   1.746
15924SI     SI115924   7.086   8.467   6.612
15925SI     SI115925   5.503   8.320   2.225
15926SI     SI115926   4.768   0.463   7.738
15927SI     SI115927   3.829   9.120   6.318
15928SI     SI115928   8.682   0.973   3.750
15929SI     SI115929   1.083   0.771   9.010
15930SI     SI115930   0.672   1.085   4.505
15931SI     SI115931   4.284   8.347   0.362
15932SI     SI115932   9.447   0.402   1.179
15933SI     SI115933   2.574   9.578   4.830
15934SI     SI115934   0.855   1.006   1.437
15935SI     SI115935   9.286   0.145   1.081
15936SI     SI115936   5.570   8.729   3.502
15937SI     SI115937   7.907   9.117   0.594
15938SI     SI115938   0.786   8.372   9.218
15939SI     SI115939   5.129   9.305   6.523
15940SI     SI115940   3.607   0.625   2.882
15941SI     SI115941   2.901   0.949   0.572
15942SI     SI115942   8.302   0.819   9.374
15943SI     SI115943   0.857   9.441   8.809
15944SI     SI115944   0.523   1.276   6.350
15945SI     SI115945   2.387   1.073   0.416
15946SI     SI115946   4.853   9.592   1.649
15947SI     SI115947   7.885   8.685   8.419
15948SI     SI115948   8.680   8.916   2.512
15949SI     SI115949   9.564   8.868   1.252
15950SI     SI115950   6.279   9.101   0.850
15951SI     SI115951   7.220   0.547   1.212
15952SI     SI115952   6.640   1.045   8.165
15953SI     SI115953   7.846   8.785   5.066
15954SI     SI115954   8.977   0.863   7.377
15955SI     SI115955   9.328   8.659   7.254
15956SI     SI115956   5.390   9.387   2.921
15957SI     SI115957   5.046   0.865   4.089
15958SI     SI115958   3.227   8.414   5.456
15959SI     SI115959   7.295   8.828   2.342
15960SI     SI115960   7.292   0.333   4.955
15961SI     SI115961   0.528   0.017   2.182
15962SI     SI115962   8.650   0.476   3.602
15963SI     SI115963   5.539   0.358   8.982
15964SI     SI115964   3.449   0.970   6.219
15965SI     SI115965   8.089   0.506   5.700
15966SI     SI115966   5.245   0.472   6.936
15967SI     SI115967   3.561   8.598   1.411
15968SI     SI115968   5.851   9.073   7.052
15969SI     SI115969   3.172   0.264   2.663
15970SI     SI115970   3.145   0.717   1.629
15971SI     SI115971   3.253   0.071   3.997
15972SI     SI115972   8.002   0.208   5.694
15973SI     SI115973   2.704   1.040   3.787
15974SI     SI115974   9.277   9.133   7.015
15975SI     SI115975   3.530   0.528   5.031
15976SI     SI115976   3.943   0.767   4.826
15977SI     SI115977   9.256   8.308   6.561
15978SI     SI115978   1.428   9.131   5.176
15979SI     SI115979   2.409   0.520   4.760
15980SI     SI115980   4.819   0.417   3.679
15981SI     SI115981   3.171   8.788   9.288
15982SI     SI115982   3.364   8.500   7.495
15983SI     SI115983   6.859   9.501   0.682
15984SI     SI115984   1.644   8.721   6.247
15985SI     SI115985   1.036   9.498   3.204
15986SI     SI115986   1.489   0.109   2.061
15987SI     SI115987   4.128   1.205   9.476
15988SI     SI115988   7.892   8.492   8.186
15989SI     SI115989   0.750   9.162   8.710
15990SI     SI115990   9.316   8.402   0.284
15991SI     SI115991   3.977   9.186   6.069
15992SI     SI115992   5.566   9.485   9.239
15993SI     SI115993   7.211   9.089   9.511
15994SI     SI115994   2.366   8.605   8.101
15995SI     SI115995   8.768   0.872   4.023
15996SI     SI115996   6.230   8.865   6.048
15997SI     SI115997   6.816   0.802   9.272
15998SI     SI115998   7.008   8.549   3.773
15999SI     SI115999   3.124   8.408   3.879
16000SI     SI116000   6.975   0.261   4.345
16001SI     SI116001   7.458   8.977   6.400
16002SI     SI116002   3.155   1.132   9.584
16003SI     SI116003   6.970   0.553   6.509
16004SI     SI116004   9.430   1.424   4.190
16005SI     SI116005   2.748   0.844   7.353
16006SI     SI116006   9.401   9.380   6.888
16007SI     SI116007   4.850   9.414   7.268
16008SI     SI116008   4.807   0.209   6.975
16009SI     SI116009   9.053   8.740   1.415
16010SI     SI116010   6.027   0.976   3.729
16011SI     SI116011   1.276   0.221   1.097
16012SI     SI116012   1.028   1.033   2.025
16013SI     SI116013   9.309   8.624   5.566
16014SI     SI116014   7.592   0.865   5.092
16015SI     SI116015   3.404   8.275   2.855
16016SI     SI116016   2.438   1.112   6.006
16017SI     SI116017   2.200   9.314   0.151
16018SI     SI116018   8.979   0.772   3.128
16019SI     SI116019   8.932   0.156   9.394
16020SI     SI116020   7.603   0.534   4.176
16021SI     SI116021   1.774   9.541   6.872
16022SI     SI116022   8.891   1.083   4.214
16023SI     SI116023   9.506   8.673   7.511
16024SI     SI116024   4.404   1.119   0.172
16025SI     SI116025   5.282   9.225   8.458
16026SI     SI116026   9.099   0.341   7.195
16027SI     SI116027   0.104   8.318   8.040
16028SI     SI116028   6.268   8.479   8.060
16029SI     SI116029   8.887   9.244   3.277
16030SI     SI116030   5.242   0.343   2.234
16031SI     SI116031   7.269   8.384   3.120
16032SI     SI116032   6.294   9.144   4.614
16033SI     SI116033   4.541   0.190   3.510
16034SI     SI116034   7.780   8.298   6.802
16035SI     SI116035   1.426   1.126   1.761
16036SI     SI116036   0.116   8.588   3.073
16037SI     SI116037   0.171   0.104   8.877
16038SI     SI116038   6.877   9.162   2.358
16039SI     SI116039   3.677   8.320   6.637
16040SI     SI116040   6.948   0.561   4.409
16041SI     SI116041   3.696   8.721   6.992
16042SI     SI116042   2.420   9.299   8.796
16043SI     SI116043   8.655   0.735   2.641
16044SI     SI116044   2.886   0.435   5.817
16045SI     SI116045   6.141   8.693   0.783
16046SI     SI116046   8.420   0.990   1.310
16047SI     SI116047   5.072   8.812   4.839
16048SI     SI116048   1.295   9.233   2.450
16049SI     SI116049   8.692   0.627   6.574
16050SI     SI116050   4.816   0.386   6.156
16051SI     SI116051   2.010   9.177   7.400
16052SI     SI116052   3.806   8.577   5.896
16053SI     SI116053   7.332   1.094   9.193
16054SI     SI116054   2.349   0.778   2.493
16055SI     SI116055   1.375   0.485   9.603
16056SI     SI116056   4.551   0.307   5.226
16057SI     SI116057   0.349   8.317   2.744
16058SI     SI116058   4.371   8.555   4.301
16059SI     SI116059   7.931   0.627   1.266
16060SI     SI116060   4.282   0.054   4.313
16061SI     SI116061   6.827   8.990   4.463
16062SI     SI116062   3.871   1.006   6.473
16063SI     SI116063   0.614   9.298   4.190
16064SI     SI116064   5.391   9.465   6.520
16065SI     SI116065   2.224   8.755   5.234
16066SI     SI116066   8.472   0.831   0.020
16067SI     SI116067   4.291   9.269   6.905
16068SI     SI116068   7.045   0.204   5.103
16069SI     SI116069   0.774   1.098   8.734
16070SI     SI116070   1.298   0.989   0.205
16071SI     SI116071   3.282   1.335   2.586
16072SI     SI116072   9.137   0.637   7.539
16073SI     SI116073   2.432   9.106   1.042
16074SI     SI116074   1.230   0.548   2.139
16075SI     SI116075   1.822   0.625   4.198
16076SI     SI116076   8.303   0.044   9.528
16077SI     SI116077   6.333   0.616   1.444
16078SI     SI116078   4.071   0.431   8.518
16079SI     SI116079   0.916   0.117   4.216
16080SI     SI116080   8.485   1.335   6.343
16081SI     SI116081   7.393   0.807   3.030
16082SI     SI116082   8.923   8.763   8.998
16083SI     SI116083   8.397   8.326   2.815
16084SI     SI116084   3.018   9.041   5.695
16085SI     SI116085   4.842   8.666   7.282
16086SI     SI116086   0.388   0.278   8.016
16087SI     SI116087   5.968   8.603   2.702
16088SI     SI116088   3.166   8.528   6.753
16089SI     SI116089   1.445   1.112   2.648
16090SI     SI116090   1.515   0.796   8.092
16091SI     SI116091   1.802   0.806   2.345
16092SI     SI116092   5.751   8.488   2.283
16093SI     SI116093   0.647   0.773   2.275
16094SI     SI116094   5.595   1.158   5.289
16095SI     SI116095   0.937   1.220   4.412
16096SI     SI116096   2.675   0.025   5.107
16097SI     SI116097   2.219   0.537   7.486
16098SI     SI116098   0.889   9.160   8.424
16099SI     SI116099   8.741   1.030   0.560
16100SI     SI116100   5.872   8.695   1.204
16101SI     SI116101   8.424   9.044   8.050
16102SI     SI116102   5.499   1.389   6.624
16103SI     SI116103   5.572   9.486   7.485
16104SI     SI116104   6.838   0.547   1.698
16105SI     SI116105   8.509   8.476   7.471
16106SI     SI116106   7.772   0.122   3.885
16107SI     SI116107   5.369   8.837   0.567
16108SI     SI116108   7.295   9.370   2.536
16109SI     SI116109   2.454   8.390   7.594
16110SI     SI116110   2.379   0.101   2.851
16111SI     SI116111   0.425   9.574   4.873
16112SI     SI116112   2.682   0.678   8.641
16113SI     SI116113   4.531   0.324   2.185
16114SI     SI116114   3.784   8.610   7.435
16115SI     SI116115   2.696   8.774   7.760
16116SI     SI116116   0.239   0.847   1.910
16117SI     SI116117   6.271   9.512   4.349
16118SI     SI116118   8.257   1.071   7.162
16119SI     SI116119   9.021   9.023   0.992
16120SI     SI116120   1.301   8.519   2.207
16121SI     SI116121   3.183   0.466   4.002
16122SI     SI116122   9.470   0.875   4.731
16123SI     SI116123   6.589   0.878   3.545
16124SI     SI116124   9.298   1.198   7.763
16125SI     SI116125   5.784   1.085   5.972
16126SI     SI116126   5.432   0.845   7.021
16127SI     SI116127   8.831   0.886   8.120
16128SI     SI116128   6.411   0.914   0.417
16129SI     SI116129   0.786   0.489   3.439
16130SI     SI116130   5.567   8.712   1.184
16131SI     SI116131   1.631   8.225   3.098
16132SI     SI116132   1.023   0.515   8.649
16133SI     SI116133   2.134   0.147   4.731
16134SI     SI116134   4.874   0.848   1.552
16135SI     SI116135   3.775   0.422   5.882
16136SI     SI116136   6.393   1.258   1.165
16137SI     SI116137   4.590   8.438   0.716
16138SI     SI116138   3.533   0.434   0.660
16139SI     SI116139   1.834   0.138   6.647
16140SI     SI116140   7.967   9.150   2.314
16141SI     SI116141   8.193   0.861   6.967
16142SI     SI116142   3.003   0.864   5.601
16143SI     SI116143   3.189   8.233   0.257
16144SI     SI116144   5.254   8.420   5.920
16145SI     SI116145   3.864   8.665   8.789
16146SI     SI116146   3.830   0.265   2.127
16147SI     SI116147   8.432   0.302   6.926
16148SI     SI116148   7.347   0.177   8.437
16149SI     SI116149   2.866   8.538   1.657
16150SI     SI116150   6.890   9.442   3.652
16151SI     SI116151   8.697   1.013   6.068
16152SI     SI116152   6.477   9.231   5.955
16153SI     SI116153   6.834   0.768   1.480
16154SI     SI116154   9.379   9.575   3.771
16155SI     SI116155   7.077   8.551   8.400
16156SI     SI116156   8.612   0.785   5.119
16157SI     SI116157   6.060   8.282   0.397
16158SI     SI116158   4.582   9.389   5.111
16159SI     SI116159   6.300   8.999   7.187
16160SI     SI116160   2.901   1.118   5.441
16161SI     SI116161   3.059   0.325   1.480
16162SI     SI116162   2.272   8.948   2.673
16163SI     SI116163   5.069   0.567   8.767
16164SI     SI116164   2.919   9.448   5.199
16165SI     SI116165   2.460   0.783   3.023
16166SI     SI116166   5.674   9.540   7.953
16167SI     SI116167   0.165   0.315   0.304
16168SI     SI116168   3.862   0.814   9.541
16169SI     SI116169   4.178   0.742   0.366
16170SI     SI116170   6.248   1.042   6.289
16171SI     SI116171   4.285   0.603   1.895
16172SI     SI116172   2.854   0.507   7.492
16173SI     SI116173   4.825   8.484   9.486
16174SI     SI116174   2.411   0.640   1.862
16175SI     SI116175   8.605   0.565   1.306
16176SI     SI116176   6.608   0.369   9.114
16177SI     SI116177   1.450   8.657   3.224
16178SI     SI116178   5.674   0.873   6.136
16179SI     SI116179   0.358   8.754   9.191
16180SI     SI116180   4.172   8.604   6.318
16181SI     SI116181   5.465   0.286   3.958
16182SI     SI116182   7.079   8.673   4.682
16183SI     SI116183   4.728   8.448   5.109
16184SI     SI116184   9.544   0.895   0.155
16185SI     SI116185   1.881   0.604   4.768
16186SI     SI116186   2.454   8.631   3.322
16187SI     SI116187   2.811   0.256   3.735
16188SI     SI116188   7.080   0.780   7.575
16189SI     SI116189   1.075   8.567   8.597
16190SI     SI116190   3.887   9.331   7.150
16191SI     SI116191   1.840   0.408   6.801
16192SI     SI116192   2.489   8.773   4.617
16193SI     SI116193   0.633   9.431   7.258
16194SI     SI116194   5.533   9.472   1.164
16195SI     SI116195   6.933   0.157   6.968
16196SI     SI116196   5.832   9.442   3.259
16197SI     SI116197   7.317   8.511   1.144
16198SI     SI116198   2.922   1.133   1.510
16199SI     SI116199   7.485   0.237   2.027
16200SI     SI116200   2.252   9.298   8.096
16201SI     SI116201   3.510   0.303   8.955
16202SI     SI116202   6.781   0.597   0.525
16203SI     SI116203   6.979   8.845   6.083
16204SI     SI116204   8.676   9.086   6.842
16205SI     SI116205   8.223   8.751   5.448
16206SI     SI116206   3.615   8.613   6.714
16207SI     SI116207   2.852   8.676   8.007
16208SI     SI116208   7.220   8.699   7.346
16209SI     SI116209   8.207   1.330   8.928
16210SI     SI116210   8.416   0.802   5.361
16211SI     SI116211   8.458   9.213   2.819
16212SI     SI116212   5.218   8.335   8.974
16213SI     SI116213   4.769   8.842   4.444
16214SI     SI116214   8.381   9.343   8.041
16215SI     SI116215   5.934   1.237   2.421
16216SI     SI116216   5.136   1.148   4.405
16217SI     SI116217   0.116   8.901   3.115
16218SI     SI116218   6.905   0.876   3.567
16219SI     SI116219   1.526   8.256   1.837
16220SI     SI116220   4.190   8.425   4.741
16221SI     SI116221   6.413   8.672   3.360
16222SI     SI116222   3.354   0.688   8.802
16223SI     SI116223   2.823   8.759   6.197
16224SI     SI116224   4.057   9.200   7.659
16225SI     SI116225   6.606   0.924   9.088
16226SI     SI116226   5.031   0.116   5.087
16227SI     SI116227   2.444   9.599   0.920
16228SI     SI116228   1.727   9.066   1.469
16229SI     SI116229   8.096   0.539   3.884
16230SI     SI116230   7.138   0.729   4.271
16231SI     SI116231   7.758   1.041   6.777
16232SI     SI116232   0.176   8.997   2.235
16233SI     SI116233   4.236   0.583   7.829
16234SI     SI116234   2.359   9.386   8.507
16235SI     SI116235   6.307   9.156   0.181
16236SI     SI116236   2.566   0.187   5.318
16237SI     SI116237   0.404   0.853   8.913
16238SI     SI116238   2.474   8.451   0.725
16239SI     SI116239   3.036   1.222   8.147
16240SI     SI116240   2.748   9.135   4.925
16241SI     SI116241   1.056   0.318   2.243
16242SI     SI116242   4.930   9.213   8.125
16243SI     SI116243   2.933   9.267   2.997
16244SI     SI116244   4.224   0.908   8.639
16245SI     SI116245   5.265   0.852   6.510
16246SI     SI116246   8.958   8.750   1.123
16247SI     SI116247   8.020   9.378   5.826
16248SI     SI116248   8.094   0.808   0.735
16249SI     SI116249   8.534   8.399   3.577
16250SI     SI116250   9.464   9.588   0.083
16251SI     SI116251   0.844   8.844   1.672
16252SI     SI116252   7.764   0.111   8.150
16253SI     SI116253   7.736   9.074   5.162
16254SI     SI116254   5.608   0.225   2.720
16255SI     SI116255   5.575   8.448   8.236
16256SI     SI116256   6.132   9.248   1.870
16257SI     SI116257   0.856   9.550   0.389
16258SI     SI116258   4.390   0.562   8.829
16259SI     SI116259   2.138   1.143   6.734
16260SI     SI116260   2.793   0.085   9.605
16261SI     SI116261   4.904   8.789   5.360
16262SI     SI116262   6.839   0.031   2.211
16263SI     SI116263   7.782   0.167   5.212
16264SI     SI116264   1.385   8.926   4.950
16265SI     SI116265   8.324   0.541   4.095
16266SI     SI116266   8.963   0.202   8.283
16267SI     SI116267   8.582   8.516   6.429
16268SI     SI116268   0.716   0.785   4.476
16269SI     SI116269   6.612   8.932   7.498
16270SI     SI116270   7.118   9.527   7.060
16271SI     SI116271   8.921   0.112   3.904
16272SI     SI116272   8.367   0.857   7.669
16273SI     SI116273   3.739   9.389   4.724
16274SI     SI116274   5.363   0.180   6.873
16275SI     SI116275   5.902   0.114   0.002
16276SI     SI116276   3.272   0.450   4.886
16277SI     SI116277   5.871   8.532   6.580
16278SI     SI116278   2.789   1.022   1.755
16279SI     SI116279   7.190   0.629   4.922
16280SI     SI116280   9.023   1.075   1.329
16281SI     SI116281   4.471   0.594   6.052
16282SI     SI116282   7.833   1.065   7.516
16283SI     SI116283   6.348   0.655   6.855
16284SI     SI116284   8.665   8.623   2.146
16285SI     SI116285   7.591   9.413   9.576
16286SI     SI116286   5.514   1.140   6.995
16287SI     SI116287   0.332   8.592   8.318
16288SI     SI116288   7.456   1.188   3.765
16289SI     SI116289   0.070   8.274   0.579
16290SI     SI116290   2.047   0.685   5.427
16291SI     SI116291   6.280   0.341   8.777
16292SI     SI116292   7.421   1.236   5.340
16293SI     SI116293   2.792   0.930   8.488
16294SI     SI116294   5.881   1.157   3.929
16295SI     SI116295   1.659   0.968   7.867
16296SI     SI116296   7.543   8.871   0.863
16297SI     SI116297   0.728   9.339   1.781
16298SI     SI116298   6.644   0.389   7.835
16299SI     SI116299   5.359   0.487   7.229
16300SI     SI116300   3.956   0.455   3.754
16301SI     SI116301   7.643   1.012   6.014
16302SI     SI116302   0.281   0.118   3.602
16303SI     SI116303   4.736   1.053   7.344
16304SI     SI116304   6.103   9.386   4.565
16305SI     SI116305   4.197   1.096   4.812
16306SI     SI116306   5.104   0.575   2.545
16307SI     SI116307   1.050   9.422   4.847
16308SI     SI116308   7.611   0.154   7.175
16309SI     SI116309   3.180   1.291   1.520
16310SI     SI116310   6.640   1.141   5.425
16311SI     SI116311   4.580   0.770   0.813
16312SI     SI116312   3.687   1.285   7.158
16313SI     SI116313   0.370   0.718   0.292
16314SI     SI116314   0.853   8.438   1.394
16315SI     SI116315   1.352   9.430   8.560
16316SI     SI116316   1.738   0.979   6.403
16317SI     SI116317   9.259   9.454   8.492
16318SI     SI116318   6.001   0.260   7.353
16319SI     SI116319   7.660   9.468   7.515
16320SI     SI116320   2.841   1.125   4.381
16321SI     SI116321   5.729   8.862   2.243
16322SI     SI116322   7.350   0.084   6.134
16323SI     SI116323   6.545   9.437   8.497
16324SI     SI116324   9.257   8.963   3.123
16325SI     SI116325   7.621   9.079   9.203
16326SI     SI116326   9.385   8.481   4.447
16327SI     SI116327   1.013   8.894   8.008
16328SI     SI116328   5.654   8.161   2.666
16329SI     SI116329   6.346   0.392   4.021
16330SI     SI116330   4.471   0.914   3.578
16331SI     SI116331   0.537   9.103   1.288
16332SI     SI116332   0.666   8.926   7.505
16333SI     SI116333   4.991   0.739   6.391
16334SI     SI116334   3.069   9.518   2.886
16335SI     SI116335   5.422   1.221   2.276
16336SI     SI116336   5.269   0.860   5.553
16337SI     SI116337   5.389   8.382   8.719
16338SI     SI116338   8.476   0.767   4.453
16339SI     SI116339   5.177   9.354   8.068
16340SI     SI116340   0.370   0.455   2.866
16341SI     SI116341   4.474   0.332   0.100
16342SI     SI116342   0.738   8.377   0.969
16343SI     SI116343   0.730   0.413   1.894
16344SI     SI116344   7.792   0.052   9.577
16345SI     SI116345   6.533   0.849   7.007
16346SI     SI116346   3.199   8.779   7.807
16347SI     SI116347   1.717   8.562   5.779
16348SI     SI116348   1.662   0.688   1.852
16349SI     SI116349   3.878   0.656   5.358
16350SI     SI116350   6.361   0.081   2.657
16351SI     SI116351   8.736   0.220   0.261
16352SI     SI116352   7.821   0.884   5.450
16353SI     SI116353   4.232   8.258   6.636
16354SI     SI116354   5.911   9.458   6.224
16355SI     SI116355   9.017   0.312   8.804
16356SI     SI116356   4.101   0.215   7.113
16357SI     SI116357   4.226   0.098   9.327
16358SI     SI116358   1.633   9.593   7.356
16359SI     SI116359   9.071   0.618   2.595
16360SI     SI116360   8.541   9.200   0.767
16361SI     SI116361   8.484   0.791   1.768
16362SI     SI116362   5.332   9.293   7.832
16363SI     SI116363   9.216   9.228   0.606
16364SI     SI116364   1.782   8.395   0.496
16365SI     SI116365   6.457   0.950   1.116
16366SI     SI116366   2.127   0.069   1.356
16367SI     SI116367   1.436   0.069   3.346
16368SI     SI116368   0.931   9.355   7.660
16369SI     SI116369   8.495   8.928   1.304
16370SI     SI116370   6.790   1.339   2.658
16371SI     SI116371   1.921   1.081   0.638
16372SI     SI116372   0.979   0.081   5.423
16373SI     SI116373   4.804   0.312   5.043
16374SI     SI116374   7.089   0.168   5.993
16375SI     SI116375   5.767   8.715   2.502
16376SI     SI116376   2.027   9.350   0.676
16377SI     SI116377   0.837   8.662   8.342
16378SI     SI116378   8.604   8.951   8.554
16379SI     SI116379   3.843   8.353   0.392
16380SI     SI116380   3.341   9.422   0.973
16381SI     SI116381   8.545   9.091   3.546
16382SI     SI116382   7.009   8.888   0.040
16383SI     SI116383   9.597   0.596   4.820
16384SI     SI116384   2.934   9.189   0.948
16385SI     SI116385   2.433   0.230   4.708
16386SI     SI116386   8.286   0.456   9.549
16387SI     SI116387   6.191   1.381   8.427
16388SI     SI116388   4.084   8.385   0.581
16389SI     SI116389   8.869   8.856   3.921
16390SI     SI116390   4.529   0.389   9.037
16391SI     SI116391   7.236   0.729   3.779
16392SI     SI116392   3.119   9.418   8.268
16393SI     SI116393   5.705   1.255   2.216
16394SI     SI116394   6.752   0.239   6.725
16395SI     SI116395   5.638   0.649   4.087
16396SI     SI116396   0.588   8.427   8.743
16397SI     SI116397   6.838   0.507   9.235
16398SI     SI116398   8.466   1.086   8.575
16399SI     SI116399   7.098   8.862   5.342
16400SI     SI116400   4.688   1.162   8.548
16401SI     SI116401   6.687   9.418   6.071
16402SI     SI116402   7.427   0.823   4.838
16403SI     SI116403   5.481   9.253   6.331
16404SI     SI116404   3.922   8.345   5.090
16405SI     SI116405   1.689   9.210   1.026
16406SI     SI116406   1.153   0.327   5.436
16407SI     SI116407   2.074   1.349   9.036
16408SI     SI116408   2.804   0.766   4.915
16409SI     SI116409   0.658   8.336   0.489
16410SI     SI116410   2.263   9.499   6.128
16411SI     SI116411   5.543   0.943   4.146
16412SI     SI116412   5.230   9.080   0.420
16413SI     SI116413   7.173   9.167   0.480
16414SI     SI116414   1.467   0.361   5.434
16415SI     SI116415   2.658   8.217   4.295
16416SI     SI116416   0.897   0.647   6.634
16417SI     SI116417   6.956   0.112   0.504
16418SI     SI116418   9.385   0.978   4.114
16419SI     SI116419   5.491   0.390   1.476
16420SI     SI116420   3.804   0.643   1.821
16421SI     SI116421   2.421   8.942   3.672
16422SI     SI116422   6.338   0.278   0.958
16423SI     SI116423   1.728   9.104   1.977
16424SI     SI116424   8.494   8.562   1.625
16425SI     SI116425   4.588   0.184   1.259
16426SI     SI116426   0.771   8.548   1.663
16427SI     SI116427   7.240   9.237   1.472
16428SI     SI116428   0.906   8.620   7.176
16429SI     SI116429   5.752   0.387   5.342
16430SI     SI116430   6.695   8.806   2.037
16431SI     SI116431   2.928   0.456   3.259
16432SI     SI116432   5.459   8.576   4.480
16433SI     SI116433   8.637   9.246   4.948
16434SI     SI116434   3.439   8.182   5.709
16435SI     SI116435   0.259   0.701   7.873
16436SI     SI116436   8.408   9.354   9.554
16437SI     SI116437   1.494   0.029   0.259
16438SI     SI116438   5.147   0.505   2.009
16439SI     SI116439   7.356   0.608   5.861
16440SI     SI116440   1.352   0.913   3.535
16441SI     SI116441   2.354   8.486   9.178
16442SI     SI116442   3.782   9.599   5.557
16443SI     SI116443   9.033   9.009   8.836
16444SI     SI116444   1.092   0.226   7.012
16445SI     SI116445   7.598   1.010   2.017
16446SI     SI116446   6.593   0.592   4.027
16447SI     SI116447   7.643   1.291   0.037
16448SI     SI116448   1.003   8.955   3.668
16449SI     SI116449   3.814   1.183   1.001
16450SI     SI116450   1.990   8.962   5.594
16451SI     SI116451   7.610   8.478   8.067
16452SI     SI116452   5.672   0.051   6.151
16453SI     SI116453   9.163   1.078   2.277
16454SI     SI116454   3.840   9.537   6.519
16455SI     SI116455   6.063   0.293   9.156
16456SI     SI116456   3.347   0.664   5.397
16457SI     SI116457   2.564   9.081   2.972
16458SI     SI116458   4.345   0.386   6.802
16459SI     SI116459   2.161   0.569   6.106
16460SI     SI116460   3.519   9.039   8.766
16461SI     SI116461   0.823   8.459   4.623
16462SI     SI116462   4.992   9.054   6.043
16463SI     SI116463   1.387   1.206   7.233
16464SI     SI116464   8.191   8.940   2.322
16465SI     SI116465   0.328   8.383   6.077
16466SI     SI116466   0.600   1.387   9.053
16467SI     SI116467   7.176   9.498   4.583
16468SI     SI116468   1.605   0.432   1.753
16469SI     SI116469   3.970   1.195   3.664
16470SI     SI116470   4.328   9.103   4.364
16471SI     SI116471   1.127   8.617   9.399
16472SI     SI116472   5.065   1.084   8.690
16473SI     SI116473   7.286   9.194   8.806
16474SI     SI116474   4.096   9.127   6.473
16475SI     SI116475   5.751   0.095   3.129
16476SI     SI116476   8.336   0.107   6.702
16477SI     SI116477   4.330   9.149   3.592
16478SI     SI116478   0.968   0.940   8.003
16479SI     SI116479   0.518   0.833   7.948
16480SI     SI116480   1.159   0.510   4.285
16481SI     SI116481   2.535   0.325   6.215
16482SI     SI116482   2.797   8.441   2.960
16483SI     SI116483   4.831   8.740   2.378
16484SI     SI116484   6.805   0.464   2.939
16485SI     SI116485   6.084   0.180   4.695
16486SI     SI116486   4.876   9.471   5.202
16487SI     SI116487   1.901   0.850   7.060
16488SI     SI116488   1.530   9.585   9.091
16489SI     SI116489   3.843   0.055   4.601
16490SI     SI116490   5.425   8.509   9.134
16491SI     SI116491   5.130   0.137   1.276
16492SI     SI116492   9.369   1.206   6.515
16493SI     SI116493   8.326   9.483   5.484
16494SI     SI116494   9.497   9.257   1.146
16495SI     SI116495   5.418   9.270   8.743
16496SI     SI116496   3.081   0.420   3.706
16497SI     SI116497   9.091   8.415   9.489
16498SI     SI116498   3.032   9.297   2.396
16499SI     SI116499   7.357   0.661   8.584
16500SI     SI116500   7.833   0.455   0.143
16501SI     SI116501   8.031   9.200   3.571
16502SI     SI116502   7.887   0.806   6.944
16503SI     SI116503   4.201   0.967   5.081
16504SI     SI116504   0.124   1.238   5.227
16505SI     SI116505   5.937   9.555   7.012
16506SI     SI116506   0.670   0.369   6.087
16507SI     SI116507   7.955   0.620   8.947
16508SI     SI116508   6.152   9.293   3.867
16509SI     SI116509   5.205   8.399   0.948
16510SI     SI116510   8.406   0.034   4.050
16511SI     SI116511   3.562   0.533   7.740
16512SI     SI116512   7.657   0.927   0.884
16513SI     SI116513   5.521   0.642   4.953
16514SI     SI116514   7.513   0.408   3.144
16515SI     SI116515   8.389   9.178   8.581
16516SI     SI116516   5.659   8.914   3.293
16517SI     SI116517   4.583   0.965   9.218
16518SI     SI116518   9.540   8.652   4.828
16519SI     SI116519   5.552   0.944   1.029
16520SI     SI116520   7.098   8.888   3.295
16521SI     SI116521   1.548   0.584   1.269
16522SI     SI116522   4.956   0.694   4.512
16523SI     SI116523   4.818   0.626   5.089
16524SI     SI116524   8.383   8.528   8.871
16525SI     SI116525   1.982   8.232   8.549
16526SI     SI116526   6.010   8.417   1.210
16527SI     SI116527   4.024   0.633   2.052
16528SI     SI116528   9.510   0.128   8.201
16529SI     SI116529   7.225   8.803   3.031
16530SI     SI116530   1.861   9.051   7.897
16531SI     SI116531   3.218   9.440   2.615
16532SI     SI116532   1.306   1.135   4.014
16533SI     SI116533   3.190   1.307   3.711
16534SI     SI116534   8.119   9.268   8.668
16535SI     SI116535   8.110   1.153   4.267
16536SI     SI116536   7.913   0.580   2.543
16537SI     SI116537   9.104   9.453   8.753
16538SI     SI116538   3.975   1.288   4.848
16539SI     SI116539   5.372   8.715   2.855
16540SI     SI116540   1.505   8.936   5.405
16541SI     SI116541   2.613   0.673   9.423
16542SI     SI116542   7.631   8.760   6.276
16543SI     SI116543   9.009   0.763   0.069
16544SI     SI116544   1.997   8.374   6.156
16545SI     SI116545   6.260   9.410   2.105
16546SI     SI116546   7.776   0.278   3.269
16547SI     SI116547   8.815   1.274   6.982
16548SI     SI116548   5.734   0.887   2.774
16549SI     SI116549   4.098   0.200   8.129
16550SI     SI116550   6.034   9.523   3.493
16551SI     SI116551   1.781   9.523   3.191
16552SI     SI116552   7.559   1.215   9.367
16553SI     SI116553   2.520   9.391   1.472
16554SI     SI116554   2.287   0.879   6.762
16555SI     SI116555   0.991   0.027   6.118
16556SI     SI116556   8.925   1.322   8.793
16557SI     SI116557   9.490   8.776   5.088
16558SI     SI116558   5.965   9.352   6.497
16559SI     SI116559   7.939   1.262   1.587
16560SI     SI116560   7.626   0.243   8.385
16561SI     SI116561   8.588   8.831   3.076
16562SI     SI116562   7.259   1.225   0.935
16563SI     SI116563   5.081   0.239   7.532
16564SI     SI116564   2.531   1.178   4.410
16565SI     SI116565   2.189   1.327   5.671
16566SI     SI116566   9.288   8.612   6.490
16567SI     SI116567   4.040   0.534   7.131
16568SI     SI116568   3.628   9.071   7.837
16569SI     SI116569   7.736   9.354   8.683
16570SI     SI116570   9.109   0.781   8.210
16571SI     SI116571   3.301   9.292   3.550
16572SI     SI116572   6.695   1.211   2.395
16573SI     SI116573   3.866   0.056   6.238
16574SI     SI116574   9.598   9.461   1.604
16575SI     SI116575   3.705   1.138   4.834
16576SI     SI116576   2.149   8.858   0.668
16577SI     SI116577   4.617   8.863   8.079
16578SI     SI116578   3.484   8.616   5.065
16579SI     SI116579   8.780   0.307   2.653
16580SI     SI116580   2.256   1.244   6.457
16581SI     SI116581   3.316   8.401   9.169
16582SI     SI116582   5.303   0.423   5.029
16583SI     SI116583   2.383   0.358   8.775
16584SI     SI116584   0.082   9.382   6.844
16585SI     SI116585   1.870   0.969   0.928
16586SI     SI116586   5.636   0.546   6.718
16587SI     SI116587   1.356   1.208   3.603
16588SI     SI116588   7.887   8.939   4.569
16589SI     SI116589   8.536   8.787   5.480
16590SI     SI116590   4.367   1.242   7.563
16591SI     SI116591   1.925   8.690   4.389
16592SI     SI116592   3.108   9.516   1.957
16593SI     SI116593   3.826   8.671   5.445
16594SI     SI116594   9.555   0.739   1.860
16595SI     SI116595   9.350   0.284   1.813
16596SI     SI116596   6.400   0.038   7.636
16597SI     SI116597   3.429   1.378   7.282
16598SI     SI116598   7.750   0.312   2.496
16599SI     SI116599   6.387   0.452   3.538
16600SI     SI116600   0.579   1.121   0.186
16601SI     SI116601   7.071   0.930   4.498
16602SI     SI116602   4.834   9.526   7.753
16603SI     SI116603   8.010   0.596   9.522
16604SI     SI116604   6.801   9.067   5.693
16605SI     SI116605   1.446   9.457   1.575
16606SI     SI116606   7.835   8.428   4.680
16607SI     SI116607   8.615   0.068   7.028
16608SI     SI116608   3.017   8.661   5.965
16609SI     SI116609   3.875   8.546   7.159
16610SI     SI116610   4.526   9.460   8.438
16611SI     SI116611   0.908   0.473   3.934
16612SI     SI116612   8.461   0.861   7.264
16613SI     SI116613   1.805   0.009   0.310
16614SI     SI116614   6.672   8.918   3.528
16615SI     SI116615   5.514   9.009   1.290
16616SI     SI116616   5.311   0.597   5.398
16617SI     SI116617   5.017   0.791   6.822
16618SI     SI116618   5.480   1.150   4.747
16619SI     SI116619   5.232   0.180   7.792
16620SI     SI116620   8.239   9.146   1.685
16621SI     SI116621   2.955   0.660   1.234
16622SI     SI116622   2.879   8.581   3.959
16623SI     SI116623   5.957   0.991   0.663
16624SI     SI116624   4.700   8.552   1.451
16625SI     SI116625   1.851   0.095   5.878
16626SI     SI116626   3.900   9.322   5.149
16627SI     SI116627   9.169   9.449   0.808
16628SI     SI116628   1.300   0.331   7.534
16629SI     SI116629   6.475   8.897   0.159
16630SI     SI116630   7.243   8.863   0.511
16631SI     SI116631   9.473   9.080   4.776
16632SI     SI116632   1.685   0.194   6.373
16633SI     SI116633   4.767   8.415   4.149
16634SI     SI116634   7.029   8.506   7.862
16635SI     SI116635   6.627   0.194   5.243
16636SI     SI116636   8.369   9.073   6.006
16637SI     SI116637   9.576   0.607   6.544
16638SI     SI116638   6.161   8.560   3.636
16639SI     SI116639   4.548   0.098   5.464
16640SI     SI116640   8.166   0.878   8.335
16641SI     SI116641   5.350   8.929   8.442
16642SI     SI116642   3.591   9.354   8.258
16643SI     SI116643   5.247   0.964   7.525
16644SI     SI116644   2.699   0.976   7.858
16645SI     SI116645   1.498   9.429   1.986
16646SI     SI116646   2.197   9.461   8.960
16647SI     SI116647   9.281   0.588   0.440
16648SI     SI116648   2.526   9.596   9.463
16649SI     SI116649   4.470   1.069   1.353
16650SI     SI116650   2.643   9.535   1.713
16651SI     SI116651   0.881   1.182   7.812
16652SI     SI116652   7.500   8.458   8.696
16653SI     SI116653   0.454   8.564   7.069
16654SI     SI116654   7.760   0.977   9.342
16655SI     SI116655   3.421   0.788   7.725
16656SI     SI116656   6.542   0.837   1.380
16657SI     SI116657   8.162   9.094   1.397
16658SI     SI116658   7.531   9.256   6.274
16659SI     SI116659   0.746   8.872   2.702
16660SI     SI116660   3.850   9.176   8.299
16661SI     SI116661   2.319   0.453   8.206
16662SI     SI116662   7.751   9.237   7.329
16663SI     SI116663   0.651   8.668   5.766
16664SI     SI116664   0.991   0.067   8.441
16665SI     SI116665   8.193   8.608   8.203
16666SI     SI116666   6.804   0.506   3.241
16667SI     SI116667   5.689   0.472   5.795
16668SI     SI116668   1.485   0.136   1.483
16669SI     SI116669   3.356   8.830   5.238
16670SI     SI116670   8.770   0.672   2.194
16671SI     SI116671   0.984   0.536   5.289
16672SI     SI116672   0.680   8.765   7.031
16673SI     SI116673   7.043   8.651   1.450
16674SI     SI116674   0.602   9.058   5.931
16675SI     SI116675   4.909   8.411   9.011
16676SI     SI116676   6.580   0.062   3.452
16677SI     SI116677   8.858   0.328   7.808
16678SI     SI116678   1.374   0.907   6.869
16679SI     SI116679   1.906   9.481   8.849
16680SI     SI116680   4.016   9.219   2.683
16681SI     SI116681   3.095   8.362   8.637
16682SI     SI116682   6.211   8.845   3.758
16683SI     SI116683   6.977   9.324   5.080
16684SI     SI116684   1.314   1.286   2.878
16685SI     SI116685   4.563   9.565   7.896
16686SI     SI116686   8.071   8.971   8.954
16687SI     SI116687   2.437   0.323   1.872
16688SI     SI116688   2.126   8.823   0.200
16689SI     SI116689   5.343   0.232   4.797
16690SI     SI116690   6.606   8.560   1.888
16691SI     SI116691   0.901   0.079   6.828
16692SI     SI116692   3.909   9.142   4.091
16693SI     SI116693   8.534   0.583   6.829
16694SI     SI116694   0.955   0.249   2.763
16695SI     SI116695   9.142   0.992   5.783
16696SI     SI116696   6.319   1.285   1.681
16697SI     SI116697   4.466   8.849   3.005
16698SI     SI116698   3.334   0.155   7.728
16699SI     SI116699   2.899   8.841   2.644
16700SI     SI116700   7.806   0.869   8.565
16701SI     SI116701   2.428   1.177   3.700
16702SI     SI116702   5.342   0.873   4.821
16703SI     SI116703   7.428   0.738   2.011
16704SI     SI116704   7.481   9.042   8.082
16705SI     SI116705   8.220   0.609   1.766
16706SI     SI116706   0.035   0.682   9.060
16707SI     SI116707   5.814   9.277   0.349
16708SI     SI116708   2.317   0.831   7.492
16709SI     SI116709   1.616   9.172   9.387
16710SI     SI116710   7.131   8.719   8.825
16711SI     SI116711   0.111   0.601   2.777
16712SI     SI116712   6.141   8.759   5.293
16713SI     SI116713   4.921   0.681   0.220
16714SI     SI116714   2.124   0.809   0.998
16715SI     SI116715   4.187   9.383   4.420
16716SI     SI116716   7.549   0.697   8.140
16717SI     SI116717   2.116   8.347   7.115
16718SI     SI116718   9.087   0.060   5.586
16719SI     SI116719   3.971   8.837   7.526
16720SI     SI116720   0.576   0.274   2.372
16721SI     SI116721   6.379   0.096   2.960
16722SI     SI116722   1.653   9.320   5.067
16723SI     SI116723   9.047   0.242   0.897
16724SI     SI116724   8.295   8.834   2.773
16725SI     SI116725   9.149   0.757   5.366
16726SI     SI116726   9.508   0.019   8.501
16727SI     SI116727   0.588   0.921   3.880
16728SI     SI116728   8.168   9.129   6.672
16729SI     SI116729   5.052   8.385   7.053
16730SI     SI116730   2.566   1.028   8.286
16731SI     SI116731   0.723   9.047   1.855
16732SI     SI116732   0.302   9.605   7.576
16733SI     SI116733   5.709   8.457   3.088
16734SI     SI116734   5.006   8.488   3.086
16735SI     SI116735   6.550   9.366   2.028
16736SI     SI116736   6.954   1.162   5.479
16737SI     SI116737   4.370   8.985   1.516
16738SI     SI116738   8.709   1.193   5.620
16739SI     SI116739   2.993   0.965   7.743
16740SI     SI116740   2.385   1.144   4.132
16741SI     SI116741   4.522   0.665   7.761
16742SI     SI116742   1.115   1.275   2.392
16743SI     SI116743   6.589   8.579   4.092
16744SI     SI116744   8.148   9.546   2.624
16745SI     SI116745   7.707   0.005   8.843
16746SI     SI116746   2.696   0.477   2.191
16747SI     SI116747   2.848   9.379   4.326
16748SI     SI116748   1.477   9.525   6.906
16749SI     SI116749   8.941   0.163   4.761
16750SI     SI116750   1.154   9.044   1.872
16751SI     SI116751   7.200   8.255   5.819
16752SI     SI116752   3.330   0.909   0.057
16753SI     SI116753   5.522   1.321   8.913
16754SI     SI116754   0.850   0.479   2.948
16755SI     SI116755   4.615   1.122   8.091
16756SI     SI116756   1.181   9.278   7.812
16757SI     SI116757   5.305   8.261   3.188
16758SI     SI116758   4.114   9.456   0.165
16759SI     SI116759   2.040   0.093   3.189
16760SI     SI116760   0.350   1.031   9.331
16761SI     SI116761   3.261   0.253   6.755
16762SI     SI116762   7.919   1.177   5.400
16763SI     SI116763   8.878   8.615   0.661
16764SI     SI116764   0.184   9.428   1.864
16765SI     SI116765   5.243   9.278   3.748
16766SI     SI116766   2.926   1.008   6.058
16767SI     SI116767   1.359   1.418   2.252
16768SI     SI116768   3.706   9.368   5.755
16769SI     SI116769   6.005   9.079   0.220
16770SI     SI116770   4.636   1.240   9.344
16771SI     SI116771   3.380   8.690   1.656
16772SI     SI116772   8.949   0.564   3.530
16773SI     SI116773   2.663   0.606   0.971
16774SI     SI116774   2.989   9.559   8.646
16775SI     SI116775   7.144   0.991   3.032
16776SI     SI116776   3.517   8.773   7.435
16777SI     SI116777   0.818   8.836   5.970
16778SI     SI116778   5.883   0.725   3.005
16779SI     SI116779   5.984   0.778   4.368
16780SI     SI116780   9.594   8.809   2.386
16781SI     SI116781   8.503   8.586   5.043
16782SI     SI116782   6.126   8.717   1.895
16783SI     SI116783   8.546   0.312   4.123
16784SI     SI116784   6.705   9.567   9.218
16785SI     SI116785   8.042   0.519   1.541
16786SI     SI116786   4.863   8.816   8.486
16787SI     SI116787   1.807   1.100   2.380
16788SI     SI116788   0.082   0.200   5.056
16789SI     SI116789   4.283   0.821   5.981
16790SI     SI116790   2.808   0.869   2.180
16791SI     SI116791   3.494   8.656   0.320
16792SI     SI116792   5.652   0.773   9.592
16793SI     SI116793   9.531   0.674   6.079
16794SI     SI116794   8.911   9.053   2.067
16795SI     SI116795   4.270   8.911   1.229
16796SI     SI116796   3.532   9.395   2.266
16797SI     SI116797   0.525   8.603   2.387
16798SI     SI116798   8.563   0.382   2.855
16799SI     SI116799   2.239   8.729   3.105
16800SI     SI116800   3.194   9.272   9.033
16801SI     SI116801   8.874   8.782   8.128
16802SI     SI116802   1.083   0.451   9.576
16803TPSG   HA216803   6.643   8.083   8.457
16803TPSG   CA216804   6.670   8.032   8.365
16803TPSG   CA116805   6.695   8.102   8.246
16803TPSG    Si16806   6.695   8.288   8.246
16803TPSG   CA616807   6.736   8.030   8.132
16803TPSG   HH616808   6.751   8.079   8.036
16803TPSG   CA516809   6.759   7.891   8.139
16803TPSG   HA516810   6.791   7.836   8.052
16803TPSG   CA416811   6.736   7.823   8.260
16803TPSG   HA416812   6.755   7.716   8.266
16803TPSG   CA316813   6.689   7.893   8.372
16803TPSG   HA316814   6.672   7.839   8.465
16803TPSG    O116815   6.811   8.172   8.246
16803TPSG    H616816   6.811   8.074   8.246
16804TPSG   HA216817   8.150   1.609   4.211
16804TPSG   CA216818   8.177   1.660   4.303
16804TPSG   CA116819   8.202   1.590   4.422
16804TPSG    Si16820   8.202   1.404   4.422
16804TPSG   CA616821   8.243   1.662   4.536
16804TPSG   HH616822   8.258   1.613   4.632
16804TPSG   CA516823   8.266   1.801   4.529
16804TPSG   HA516824   8.298   1.856   4.616
16804TPSG   CA416825   8.243   1.869   4.408
16804TPSG   HA416826   8.262   1.976   4.402
16804TPSG   CA316827   8.196   1.799   4.296
16804TPSG   HA316828   8.179   1.853   4.203
16804TPSG    O116829   8.318   1.520   4.422
16804TPSG    H616830   8.318   1.618   4.422
16805TPSG   HA216831   5.822   1.608   1.632
16805TPSG   CA216832   5.849   1.659   1.724
16805TPSG   CA116833   5.874   1.589   1.843
16805TPSG    Si16834   5.874   1.403   1.843
16805TPSG   CA616835   5.915   1.661   1.957
16805TPSG   HH616836   5.930   1.612   2.053
16805TPSG   CA516837   5.938   1.800   1.950
16805TPSG   HA516838   5.970   1.855   2.037
16805TPSG   CA416839   5.915   1.868   1.829
16805TPSG   HA416840   5.934   1.975   1.823
16805TPSG   CA316841   5.868   1.798   1.717
16805TPSG   HA316842   5.851   1.852   1.624
16805TPSG    O116843   5.990   1.519   1.843
16805TPSG    H616844   5.990   1.617   1.843
16806TPSG   HA216845   6.310   8.025   2.648
16806TPSG   CA216846   6.337   7.974   2.556
16806TPSG   CA116847   6.362   8.044   2.437
16806TPSG    Si16848   6.362   8.230   2.437
16806TPSG   CA616849   6.403   7.972   2.323
16806TPSG   HH616850   6.418   8.021   2.227
16806TPSG   CA516851   6.426   7.833   2.330
16806TPSG   HA516852   6.458   7.778   2.243
16806TPSG   CA416853   6.403   7.765   2.451
16806TPSG   HA416854   6.422   7.658   2.457
16806TPSG   CA316855   6.356   7.835   2.563
16806TPSG   HA316856   6.339   7.781   2.656
16806TPSG    O116857   6.478   8.114   2.437
16806TPSG    H616858   6.478   8.016   2.437
16807TPSG   HA216859   7.296   8.008   2.484
16807TPSG   CA216860   7.323   7.957   2.392
16807TPSG   CA116861   7.348   8.027   2.273
16807TPSG    Si16862   7.348   8.213   2.273
16807TPSG   CA616863   7.389   7.955   2.159
16807TPSG   HH616864   7.404   8.004   2.063
16807TPSG   CA516865   7.412   7.816   2.166
16807TPSG   HA516866   7.444   7.761   2.079
16807TPSG   CA416867   7.389   7.748   2.287
16807TPSG   HA416868   7.408   7.641   2.293
16807TPSG   CA316869   7.342   7.818   2.399
16807TPSG   HA316870   7.325   7.764   2.492
16807TPSG    O116871   7.464   8.097   2.273
16807TPSG    H616872   7.464   7.999   2.273
16808TPSG   HA216873   4.232   1.629   6.656
16808TPSG   CA216874   4.259   1.680   6.748
16808TPSG   CA116875   4.284   1.610   6.867
16808TPSG    Si16876   4.284   1.424   6.867
16808TPSG   CA616877   4.325   1.682   6.981
16808TPSG   HH616878   4.340   1.633   7.077
16808TPSG   CA516879   4.348   1.821   6.974
16808TPSG   HA516880   4.380   1.876   7.061
16808TPSG   CA416881   4.325   1.889   6.853
16808TPSG   HA416882   4.344   1.996   6.847
16808TPSG   CA316883   4.278   1.819   6.741
16808TPSG   HA316884   4.261   1.873   6.648
16808TPSG    O116885   4.400   1.540   6.867
16808TPSG    H616886   4.400   1.638   6.867
16809TPSG   HA216887   6.505   7.986   3.957
16809TPSG   CA216888   6.532   7.935   3.865
16809TPSG   CA116889   6.557   8.005   3.746
16809TPSG    Si16890   6.557   8.191   3.746
16809TPSG   CA616891   6.598   7.933   3.632
16809TPSG   HH616892   6.613   7.982   3.536
16809TPSG   CA516893   6.621   7.794   3.639
16809TPSG   HA516894   6.653   7.739   3.552
16809TPSG   CA416895   6.598   7.726   3.760
16809TPSG   HA416896   6.617   7.619   3.766
16809TPSG   CA316897   6.551   7.796   3.872
16809TPSG   HA316898   6.534   7.742   3.965
16809TPSG    O116899   6.673   8.075   3.746
16809TPSG    H616900   6.673   7.977   3.746
16810TPSG   HA216901   7.879   1.641   3.659
16810TPSG   CA216902   7.906   1.692   3.751
16810TPSG   CA116903   7.931   1.622   3.870
16810TPSG    Si16904   7.931   1.436   3.870
16810TPSG   CA616905   7.972   1.694   3.984
16810TPSG   HH616906   7.987   1.645   4.080
16810TPSG   CA516907   7.995   1.833   3.977
16810TPSG   HA516908   8.027   1.888   4.064
16810TPSG   CA416909   7.972   1.901   3.856
16810TPSG   HA416910   7.991   2.008   3.850
16810TPSG   CA316911   7.925   1.831   3.744
16810TPSG   HA316912   7.908   1.885   3.651
16810TPSG    O116913   8.047   1.552   3.870
16810TPSG    H616914   8.047   1.650   3.870
16811TPSG   HA216915   1.897   7.984   1.588
16811TPSG   CA216916   1.924   7.933   1.496
16811TPSG   CA116917   1.949   8.003   1.377
16811TPSG    Si16918   1.949   8.189   1.377
16811TPSG   CA616919   1.990   7.931   1.263
16811TPSG   HH616920   2.005   7.980   1.167
16811TPSG   CA516921   2.013   7.792   1.270
16811TPSG   HA516922   2.045   7.737   1.183
16811TPSG   CA416923   1.990   7.724   1.391
16811TPSG   HA416924   2.009   7.617   1.397
16811TPSG   CA316925   1.943   7.794   1.503
16811TPSG   HA316926   1.926   7.740   1.596
16811TPSG    O116927   2.065   8.073   1.377
16811TPSG    H616928   2.065   7.975   1.377
16812TPSG   HA216929   5.975   8.024   4.058
16812TPSG   CA216930   6.002   7.973   3.966
16812TPSG   CA116931   6.027   8.043   3.847
16812TPSG    Si16932   6.027   8.229   3.847
16812TPSG   CA616933   6.068   7.971   3.733
16812TPSG   HH616934   6.083   8.020   3.637
16812TPSG   CA516935   6.091   7.832   3.740
16812TPSG   HA516936   6.123   7.777   3.653
16812TPSG   CA416937   6.068   7.764   3.861
16812TPSG   HA416938   6.087   7.657   3.867
16812TPSG   CA316939   6.021   7.834   3.973
16812TPSG   HA316940   6.004   7.780   4.066
16812TPSG    O116941   6.143   8.113   3.847
16812TPSG    H616942   6.143   8.015   3.847
16813TPSG   HA216943   9.565   8.087   5.578
16813TPSG   CA216944   9.526   8.036   5.491
16813TPSG   CA116945   9.469   8.106   5.383
16813TPSG    Si16946   9.469   8.292   5.383
16813TPSG   CA616947   9.427   8.034   5.269
16813TPSG   HH616948   9.377   8.083   5.186
16813TPSG   CA516949   9.449   7.895   5.261
16813TPSG   HA516950   9.418   7.840   5.172
16813TPSG   CA416951   9.509   7.827   5.367
16813TPSG   HA416952   9.528   7.720   5.360
16813TPSG   CA316953   9.545   7.897   5.483
16813TPSG   HA316954   9.592   7.843   5.566
16813TPSG    O116955   9.558   8.176   5.308
16813TPSG    H616956   9.558   8.078   5.308
16814TPSG   HA216957   6.772   8.034   9.719
16814TPSG   CA216958   6.799   7.983   9.627
16814TPSG   CA116959   6.824   8.053   9.508
16814TPSG    Si16960   6.824   8.239   9.508
16814TPSG   CA616961   6.865   7.981   9.394
16814TPSG   HH616962   6.880   8.030   9.298
16814TPSG   CA516963   6.888   7.842   9.401
16814TPSG   HA516964   6.920   7.787   9.314
16814TPSG   CA416965   6.865   7.774   9.522
16814TPSG   HA416966   6.884   7.667   9.528
16814TPSG   CA316967   6.818   7.844   9.634
16814TPSG   HA316968   6.801   7.790   9.727
16814TPSG    O116969   6.940   8.123   9.508
16814TPSG    H616970   6.940   8.025   9.508
16815TPSG   HA216971   3.335   1.562   0.178
16815TPSG   CA216972   3.362   1.613   0.270
16815TPSG   CA116973   3.387   1.543   0.389
16815TPSG    Si16974   3.387   1.357   0.389
16815TPSG   CA616975   3.428   1.615   0.503
16815TPSG   HH616976   3.443   1.566   0.599
16815TPSG   CA516977   3.451   1.754   0.496
16815TPSG   HA516978   3.483   1.809   0.583
16815TPSG   CA416979   3.428   1.822   0.375
16815TPSG   HA416980   3.447   1.929   0.369
16815TPSG   CA316981   3.381   1.752   0.263
16815TPSG   HA316982   3.364   1.806   0.170
16815TPSG    O116983   3.503   1.473   0.389
16815TPSG    H616984   3.503   1.571   0.389
16816TPSG   HA216985   7.525   1.663   0.233
16816TPSG   CA216986   7.519   1.714   0.328
16816TPSG   CA116987   7.502   1.644   0.449
16816TPSG    Si16988   7.502   1.458   0.449
16816TPSG   CA616989   7.502   1.716   0.570
16816TPSG   HH616990   7.483   1.667   0.665
16816TPSG   CA516991   7.525   1.855   0.571
16816TPSG   HA516992   7.526   1.910   0.664
16816TPSG   CA416993   7.545   1.923   0.450
16816TPSG   HA416994   7.565   2.030   0.451
16816TPSG   CA316995   7.539   1.853   0.329
16816TPSG   HA316996   7.555   1.907   0.236
16816TPSG    O116997   7.611   1.574   0.489
16816TPSG    H616998   7.611   1.672   0.489
16817TPSG   HA216999   7.474   1.463   1.974
16817TPSG   CA217000   7.501   1.514   2.066
16817TPSG   CA117001   7.526   1.444   2.185
16817TPSG    Si17002   7.526   1.258   2.185
16817TPSG   CA617003   7.567   1.516   2.299
16817TPSG   HH617004   7.582   1.467   2.395
16817TPSG   CA517005   7.590   1.655   2.292
16817TPSG   HA517006   7.622   1.710   2.379
16817TPSG   CA417007   7.567   1.723   2.171
16817TPSG   HA417008   7.586   1.830   2.165
16817TPSG   CA317009   7.520   1.653   2.059
16817TPSG   HA317010   7.503   1.707   1.966
16817TPSG    O117011   7.642   1.374   2.185
16817TPSG    H617012   7.642   1.472   2.185
16818TPSG   HA217013   8.081   8.071   0.228
16818TPSG   CA217014   8.108   8.020   0.136
16818TPSG   CA117015   8.133   8.090   0.017
16818TPSG    Si17016   8.133   8.276   0.017
16818TPSG   CA617017   8.174   8.018  -0.097
16818TPSG   HH617018   8.189   8.067  -0.193
16818TPSG   CA517019   8.197   7.879  -0.090
16818TPSG   HA517020   8.229   7.824  -0.177
16818TPSG   CA417021   8.174   7.811   0.031
16818TPSG   HA417022   8.193   7.704   0.037
16818TPSG   CA317023   8.127   7.881   0.143
16818TPSG   HA317024   8.110   7.827   0.236
16818TPSG    O117025   8.249   8.160   0.017
16818TPSG    H617026   8.249   8.062   0.017
16819TPSG   HA217027   0.675   8.016   8.750
16819TPSG   CA217028   0.702   7.965   8.658
16819TPSG   CA117029   0.727   8.035   8.539
16819TPSG    Si17030   0.727   8.221   8.539
16819TPSG   CA617031   0.768   7.963   8.425
16819TPSG   HH617032   0.783   8.012   8.329
16819TPSG   CA517033   0.791   7.824   8.432
16819TPSG   HA517034   0.823   7.769   8.345
16819TPSG   CA417035   0.768   7.756   8.553
16819TPSG   HA417036   0.787   7.649   8.559
16819TPSG   CA317037   0.721   7.826   8.665
16819TPSG   HA317038   0.704   7.772   8.758
16819TPSG    O117039   0.843   8.105   8.539
16819TPSG    H617040   0.843   8.007   8.539
16820TPSG   HA217041   9.129   1.620   4.903
16820TPSG   CA217042   9.156   1.671   4.995
16820TPSG   CA117043   9.181   1.601   5.114
16820TPSG    Si17044   9.181   1.415   5.114
16820TPSG   CA617045   9.222   1.673   5.228
16820TPSG   HH617046   9.237   1.624   5.324
16820TPSG   CA517047   9.245   1.812   5.221
16820TPSG   HA517048   9.277   1.867   5.308
16820TPSG   CA417049   9.222   1.880   5.100
16820TPSG   HA417050   9.241   1.987   5.094
16820TPSG   CA317051   9.175   1.810   4.988
16820TPSG   HA317052   9.158   1.864   4.895
16820TPSG    O117053   9.297   1.531   5.114
16820TPSG    H617054   9.297   1.629   5.114
16821TPSG   HA217055   6.114   7.990   6.762
16821TPSG   CA217056   6.141   7.939   6.670
16821TPSG   CA117057   6.166   8.009   6.551
16821TPSG    Si17058   6.166   8.195   6.551
16821TPSG   CA617059   6.207   7.937   6.437
16821TPSG   HH617060   6.222   7.986   6.341
16821TPSG   CA517061   6.230   7.798   6.444
16821TPSG   HA517062   6.262   7.743   6.357
16821TPSG   CA417063   6.207   7.730   6.565
16821TPSG   HA417064   6.226   7.623   6.571
16821TPSG   CA317065   6.160   7.800   6.677
16821TPSG   HA317066   6.143   7.746   6.770
16821TPSG    O117067   6.282   8.079   6.551
16821TPSG    H617068   6.282   7.981   6.551
16822TPSG   HA217069   7.934   8.052   0.046
16822TPSG   CA217070   7.940   8.001   0.141
16822TPSG   CA117071   7.957   8.071   0.262
16822TPSG    Si17072   7.957   8.257   0.262
16822TPSG   CA617073   7.957   7.999   0.383
16822TPSG   HH617074   7.976   8.048   0.478
16822TPSG   CA517075   7.934   7.860   0.384
16822TPSG   HA517076   7.933   7.805   0.477
16822TPSG   CA417077   7.914   7.792   0.263
16822TPSG   HA417078   7.894   7.685   0.264
16822TPSG   CA317079   7.920   7.862   0.142
16822TPSG   HA317080   7.904   7.808   0.049
16822TPSG    O117081   7.848   8.141   0.302
16822TPSG    H617082   7.848   8.043   0.302
16823TPSG   HA217083   4.625   1.612   7.976
16823TPSG   CA217084   4.652   1.663   8.068
16823TPSG   CA117085   4.677   1.593   8.187
16823TPSG    Si17086   4.677   1.407   8.187
16823TPSG   CA617087   4.718   1.665   8.301
16823TPSG   HH617088   4.733   1.616   8.397
16823TPSG   CA517089   4.741   1.804   8.294
16823TPSG   HA517090   4.773   1.859   8.381
16823TPSG   CA417091   4.718   1.872   8.173
16823TPSG   HA417092   4.737   1.979   8.167
16823TPSG   CA317093   4.671   1.802   8.061
16823TPSG   HA317094   4.654   1.856   7.968
16823TPSG    O117095   4.793   1.523   8.187
16823TPSG    H617096   4.793   1.621   8.187
16824TPSG   HA217097   5.048   7.948   2.132
16824TPSG   CA217098   5.075   7.897   2.040
16824TPSG   CA117099   5.100   7.967   1.921
16824TPSG    Si17100   5.100   8.153   1.921
16824TPSG   CA617101   5.141   7.895   1.807
16824TPSG   HH617102   5.156   7.944   1.711
16824TPSG   CA517103   5.164   7.756   1.814
16824TPSG   HA517104   5.196   7.701   1.727
16824TPSG   CA417105   5.141   7.688   1.935
16824TPSG   HA417106   5.160   7.581   1.941
16824TPSG   CA317107   5.094   7.758   2.047
16824TPSG   HA317108   5.077   7.704   2.140
16824TPSG    O117109   5.216   8.037   1.921
16824TPSG    H617110   5.216   7.939   1.921
16825TPSG   HA217111   4.315   1.602   9.182
16825TPSG   CA217112   4.342   1.653   9.274
16825TPSG   CA117113   4.367   1.583   9.393
16825TPSG    Si17114   4.367   1.397   9.393
16825TPSG   CA617115   4.408   1.655   9.507
16825TPSG   HH617116   4.423   1.606   9.603
16825TPSG   CA517117   4.431   1.794   9.500
16825TPSG   HA517118   4.463   1.849   9.587
16825TPSG   CA417119   4.408   1.862   9.379
16825TPSG   HA417120   4.427   1.969   9.373
16825TPSG   CA317121   4.361   1.792   9.267
16825TPSG   HA317122   4.344   1.846   9.174
16825TPSG    O117123   4.483   1.513   9.393
16825TPSG    H617124   4.483   1.611   9.393
16826TPSG   HA217125   8.534   7.968   2.181
16826TPSG   CA217126   8.561   7.917   2.089
16826TPSG   CA117127   8.586   7.987   1.970
16826TPSG    Si17128   8.586   8.173   1.970
16826TPSG   CA617129   8.627   7.915   1.856
16826TPSG   HH617130   8.642   7.964   1.760
16826TPSG   CA517131   8.650   7.776   1.863
16826TPSG   HA517132   8.682   7.721   1.776
16826TPSG   CA417133   8.627   7.708   1.984
16826TPSG   HA417134   8.646   7.601   1.990
16826TPSG   CA317135   8.580   7.778   2.096
16826TPSG   HA317136   8.563   7.724   2.189
16826TPSG    O117137   8.702   8.057   1.970
16826TPSG    H617138   8.702   7.959   1.970
16827TPSG   HA217139   1.796   7.988   6.956
16827TPSG   CA217140   1.823   7.937   6.864
16827TPSG   CA117141   1.848   8.007   6.745
16827TPSG    Si17142   1.848   8.193   6.745
16827TPSG   CA617143   1.889   7.935   6.631
16827TPSG   HH617144   1.904   7.984   6.535
16827TPSG   CA517145   1.912   7.796   6.638
16827TPSG   HA517146   1.944   7.741   6.551
16827TPSG   CA417147   1.889   7.728   6.759
16827TPSG   HA417148   1.908   7.621   6.765
16827TPSG   CA317149   1.842   7.798   6.871
16827TPSG   HA317150   1.825   7.744   6.964
16827TPSG    O117151   1.964   8.077   6.745
16827TPSG    H617152   1.964   7.979   6.745
16828TPSG   HA217153   4.836   7.956   9.386
16828TPSG   CA217154   4.863   7.905   9.294
16828TPSG   CA117155   4.888   7.975   9.175
16828TPSG    Si17156   4.888   8.161   9.175
16828TPSG   CA617157   4.929   7.903   9.061
16828TPSG   HH617158   4.944   7.952   8.965
16828TPSG   CA517159   4.952   7.764   9.068
16828TPSG   HA517160   4.984   7.709   8.981
16828TPSG   CA417161   4.929   7.696   9.189
16828TPSG   HA417162   4.948   7.589   9.195
16828TPSG   CA317163   4.882   7.766   9.301
16828TPSG   HA317164   4.865   7.712   9.394
16828TPSG    O117165   5.004   8.045   9.175
16828TPSG    H617166   5.004   7.947   9.175
16829TPSG   HA217167   4.450   1.482   4.312
16829TPSG   CA217168   4.477   1.533   4.404
16829TPSG   CA117169   4.502   1.463   4.523
16829TPSG    Si17170   4.502   1.277   4.523
16829TPSG   CA617171   4.543   1.535   4.637
16829TPSG   HH617172   4.558   1.486   4.733
16829TPSG   CA517173   4.566   1.674   4.630
16829TPSG   HA517174   4.598   1.729   4.717
16829TPSG   CA417175   4.543   1.742   4.509
16829TPSG   HA417176   4.562   1.849   4.503
16829TPSG   CA317177   4.496   1.672   4.397
16829TPSG   HA317178   4.479   1.726   4.304
16829TPSG    O117179   4.618   1.393   4.523
16829TPSG    H617180   4.618   1.491   4.523
16830TPSG   HA217181   1.915   1.644   6.813
16830TPSG   CA217182   1.909   1.695   6.908
16830TPSG   CA117183   1.892   1.625   7.029
16830TPSG    Si17184   1.892   1.439   7.029
16830TPSG   CA617185   1.892   1.697   7.150
16830TPSG   HH617186   1.873   1.648   7.245
16830TPSG   CA517187   1.915   1.836   7.151
16830TPSG   HA517188   1.916   1.891   7.244
16830TPSG   CA417189   1.935   1.904   7.030
16830TPSG   HA417190   1.955   2.011   7.031
16830TPSG   CA317191   1.929   1.834   6.909
16830TPSG   HA317192   1.945   1.888   6.816
16830TPSG    O117193   2.001   1.555   7.069
16830TPSG    H617194   2.001   1.653   7.069
16831TPSG   HA217195   5.845   1.577   8.307
16831TPSG   CA217196   5.872   1.628   8.399
16831TPSG   CA117197   5.897   1.558   8.518
16831TPSG    Si17198   5.897   1.372   8.518
16831TPSG   CA617199   5.938   1.630   8.632
16831TPSG   HH617200   5.953   1.581   8.728
16831TPSG   CA517201   5.961   1.769   8.625
16831TPSG   HA517202   5.993   1.824   8.712
16831TPSG   CA417203   5.938   1.837   8.504
16831TPSG   HA417204   5.957   1.944   8.498
16831TPSG   CA317205   5.891   1.767   8.392
16831TPSG   HA317206   5.874   1.821   8.299
16831TPSG    O117207   6.013   1.488   8.518
16831TPSG    H617208   6.013   1.586   8.518
16832TPSG   HA217209   0.812   8.012   3.302
16832TPSG   CA217210   0.839   7.961   3.210
16832TPSG   CA117211   0.864   8.031   3.091
16832TPSG    Si17212   0.864   8.217   3.091
16832TPSG   CA617213   0.905   7.959   2.977
16832TPSG   HH617214   0.920   8.008   2.881
16832TPSG   CA517215   0.928   7.820   2.984
16832TPSG   HA517216   0.960   7.765   2.897
16832TPSG   CA417217   0.905   7.752   3.105
16832TPSG   HA417218   0.924   7.645   3.111
16832TPSG   CA317219   0.858   7.822   3.217
16832TPSG   HA317220   0.841   7.768   3.310
16832TPSG    O117221   0.980   8.101   3.091
16832TPSG    H617222   0.980   8.003   3.091
16833TPSG   HA217223   7.237   1.578   3.373
16833TPSG   CA217224   7.264   1.629   3.465
16833TPSG   CA117225   7.289   1.559   3.584
16833TPSG    Si17226   7.289   1.373   3.584
16833TPSG   CA617227   7.330   1.631   3.698
16833TPSG   HH617228   7.345   1.582   3.794
16833TPSG   CA517229   7.353   1.770   3.691
16833TPSG   HA517230   7.385   1.825   3.778
16833TPSG   CA417231   7.330   1.838   3.570
16833TPSG   HA417232   7.349   1.945   3.564
16833TPSG   CA317233   7.283   1.768   3.458
16833TPSG   HA317234   7.266   1.822   3.365
16833TPSG    O117235   7.405   1.489   3.584
16833TPSG    H617236   7.405   1.587   3.584
16834TPSG   HA217237   0.790   7.980   4.478
16834TPSG   CA217238   0.817   7.929   4.386
16834TPSG   CA117239   0.842   7.999   4.267
16834TPSG    Si17240   0.842   8.185   4.267
16834TPSG   CA617241   0.883   7.927   4.153
16834TPSG   HH617242   0.898   7.976   4.057
16834TPSG   CA517243   0.906   7.788   4.160
16834TPSG   HA517244   0.938   7.733   4.073
16834TPSG   CA417245   0.883   7.720   4.281
16834TPSG   HA417246   0.902   7.613   4.287
16834TPSG   CA317247   0.836   7.790   4.393
16834TPSG   HA317248   0.819   7.736   4.486
16834TPSG    O117249   0.958   8.069   4.267
16834TPSG    H617250   0.958   7.971   4.267
16835TPSG   HA217251   1.598   7.976   5.559
16835TPSG   CA217252   1.625   7.925   5.467
16835TPSG   CA117253   1.650   7.995   5.348
16835TPSG    Si17254   1.650   8.181   5.348
16835TPSG   CA617255   1.691   7.923   5.234
16835TPSG   HH617256   1.706   7.972   5.138
16835TPSG   CA517257   1.714   7.784   5.241
16835TPSG   HA517258   1.746   7.729   5.154
16835TPSG   CA417259   1.691   7.716   5.362
16835TPSG   HA417260   1.710   7.609   5.368
16835TPSG   CA317261   1.644   7.786   5.474
16835TPSG   HA317262   1.627   7.732   5.567
16835TPSG    O117263   1.766   8.065   5.348
16835TPSG    H617264   1.766   7.967   5.348
16836TPSG   HA217265   5.228   7.997   7.151
16836TPSG   CA217266   5.255   7.946   7.059
16836TPSG   CA117267   5.280   8.016   6.940
16836TPSG    Si17268   5.280   8.202   6.940
16836TPSG   CA617269   5.321   7.944   6.826
16836TPSG   HH617270   5.336   7.993   6.730
16836TPSG   CA517271   5.344   7.805   6.833
16836TPSG   HA517272   5.376   7.750   6.746
16836TPSG   CA417273   5.321   7.737   6.954
16836TPSG   HA417274   5.340   7.630   6.960
16836TPSG   CA317275   5.274   7.807   7.066
16836TPSG   HA317276   5.257   7.753   7.159
16836TPSG    O117277   5.396   8.086   6.940
16836TPSG    H617278   5.396   7.988   6.940
16837TPSG   HA217279   4.949   1.573   7.773
16837TPSG   CA217280   4.976   1.624   7.865
16837TPSG   CA117281   5.001   1.554   7.984
16837TPSG    Si17282   5.001   1.368   7.984
16837TPSG   CA617283   5.042   1.626   8.098
16837TPSG   HH617284   5.057   1.577   8.194
16837TPSG   CA517285   5.065   1.765   8.091
16837TPSG   HA517286   5.097   1.820   8.178
16837TPSG   CA417287   5.042   1.833   7.970
16837TPSG   HA417288   5.061   1.940   7.964
16837TPSG   CA317289   4.995   1.763   7.858
16837TPSG   HA317290   4.978   1.817   7.765
16837TPSG    O117291   5.117   1.484   7.984
16837TPSG    H617292   5.117   1.582   7.984
16838TPSG   HA217293   8.695   1.665   3.454
16838TPSG   CA217294   8.722   1.716   3.546
16838TPSG   CA117295   8.747   1.646   3.665
16838TPSG    Si17296   8.747   1.460   3.665
16838TPSG   CA617297   8.788   1.718   3.779
16838TPSG   HH617298   8.803   1.669   3.875
16838TPSG   CA517299   8.811   1.857   3.772
16838TPSG   HA517300   8.843   1.912   3.859
16838TPSG   CA417301   8.788   1.925   3.651
16838TPSG   HA417302   8.807   2.032   3.645
16838TPSG   CA317303   8.741   1.855   3.539
16838TPSG   HA317304   8.724   1.909   3.446
16838TPSG    O117305   8.863   1.576   3.665
16838TPSG    H617306   8.863   1.674   3.665
16839TPSG   HA217307   1.399   8.066   8.699
16839TPSG   CA217308   1.426   8.015   8.607
16839TPSG   CA117309   1.451   8.085   8.488
16839TPSG    Si17310   1.451   8.271   8.488
16839TPSG   CA617311   1.492   8.013   8.374
16839TPSG   HH617312   1.507   8.062   8.278
16839TPSG   CA517313   1.515   7.874   8.381
16839TPSG   HA517314   1.547   7.819   8.294
16839TPSG   CA417315   1.492   7.806   8.502
16839TPSG   HA417316   1.511   7.699   8.508
16839TPSG   CA317317   1.445   7.876   8.614
16839TPSG   HA317318   1.428   7.822   8.707
16839TPSG    O117319   1.567   8.155   8.488
16839TPSG    H617320   1.567   8.057   8.488
16840TPSG   HA217321   4.212   8.058   2.468
16840TPSG   CA217322   4.239   8.007   2.376
16840TPSG   CA117323   4.264   8.077   2.257
16840TPSG    Si17324   4.264   8.263   2.257
16840TPSG   CA617325   4.305   8.005   2.143
16840TPSG   HH617326   4.320   8.054   2.047
16840TPSG   CA517327   4.328   7.866   2.150
16840TPSG   HA517328   4.360   7.811   2.063
16840TPSG   CA417329   4.305   7.798   2.271
16840TPSG   HA417330   4.324   7.691   2.277
16840TPSG   CA317331   4.258   7.868   2.383
16840TPSG   HA317332   4.241   7.814   2.476
16840TPSG    O117333   4.380   8.147   2.257
16840TPSG    H617334   4.380   8.049   2.257
16841TPSG   HA217335   1.128   1.614   1.246
16841TPSG   CA217336   1.155   1.665   1.338
16841TPSG   CA117337   1.180   1.595   1.457
16841TPSG    Si17338   1.180   1.409   1.457
16841TPSG   CA617339   1.221   1.667   1.571
16841TPSG   HH617340   1.236   1.618   1.667
16841TPSG   CA517341   1.244   1.806   1.564
16841TPSG   HA517342   1.276   1.861   1.651
16841TPSG   CA417343   1.221   1.874   1.443
16841TPSG   HA417344   1.240   1.981   1.437
16841TPSG   CA317345   1.174   1.804   1.331
16841TPSG   HA317346   1.157   1.858   1.238
16841TPSG    O117347   1.296   1.525   1.457
16841TPSG    H617348   1.296   1.623   1.457
16842TPSG   HA217349   5.890   8.112   9.400
16842TPSG   CA217350   5.917   8.061   9.308
16842TPSG   CA117351   5.942   8.131   9.189
16842TPSG    Si17352   5.942   8.317   9.189
16842TPSG   CA617353   5.983   8.059   9.075
16842TPSG   HH617354   5.998   8.108   8.979
16842TPSG   CA517355   6.006   7.920   9.082
16842TPSG   HA517356   6.038   7.865   8.995
16842TPSG   CA417357   5.983   7.852   9.203
16842TPSG   HA417358   6.002   7.745   9.209
16842TPSG   CA317359   5.936   7.922   9.315
16842TPSG   HA317360   5.919   7.868   9.408
16842TPSG    O117361   6.058   8.201   9.189
16842TPSG    H617362   6.058   8.103   9.189
16843TPSG   HA217363   3.718   1.536   3.961
16843TPSG   CA217364   3.652   1.587   4.029
16843TPSG   CA117365   3.561   1.517   4.111
16843TPSG    Si17366   3.561   1.331   4.111
16843TPSG   CA617367   3.483   1.589   4.204
16843TPSG   HH617368   3.408   1.540   4.265
16843TPSG   CA517369   3.500   1.728   4.219
16843TPSG   HA517370   3.441   1.783   4.291
16843TPSG   CA417371   3.593   1.796   4.140
16843TPSG   HA417372   3.608   1.903   4.153
16843TPSG   CA317373   3.667   1.726   4.043
16843TPSG   HA317374   3.739   1.780   3.981
16843TPSG    O117375   3.619   1.447   4.211
16843TPSG    H617376   3.619   1.545   4.211
16844TPSG   HA217377   7.831   8.012   1.777
16844TPSG   CA217378   7.858   7.961   1.685
16844TPSG   CA117379   7.883   8.031   1.566
16844TPSG    Si17380   7.883   8.217   1.566
16844TPSG   CA617381   7.924   7.959   1.452
16844TPSG   HH617382   7.939   8.008   1.356
16844TPSG   CA517383   7.947   7.820   1.459
16844TPSG   HA517384   7.979   7.765   1.372
16844TPSG   CA417385   7.924   7.752   1.580
16844TPSG   HA417386   7.943   7.645   1.586
16844TPSG   CA317387   7.877   7.822   1.692
16844TPSG   HA317388   7.860   7.768   1.785
16844TPSG    O117389   7.999   8.101   1.566
16844TPSG    H617390   7.999   8.003   1.566
16845TPSG   HA217391   8.291   1.498   0.594
16845TPSG   CA217392   8.318   1.549   0.686
16845TPSG   CA117393   8.343   1.479   0.805
16845TPSG    Si17394   8.343   1.293   0.805
16845TPSG   CA617395   8.384   1.551   0.919
16845TPSG   HH617396   8.399   1.502   1.015
16845TPSG   CA517397   8.407   1.690   0.912
16845TPSG   HA517398   8.439   1.745   0.999
16845TPSG   CA417399   8.384   1.758   0.791
16845TPSG   HA417400   8.403   1.865   0.785
16845TPSG   CA317401   8.337   1.688   0.679
16845TPSG   HA317402   8.320   1.742   0.586
16845TPSG    O117403   8.459   1.409   0.805
16845TPSG    H617404   8.459   1.507   0.805
16846TPSG   HA217405   5.961   1.477   0.340
16846TPSG   CA217406   5.988   1.528   0.432
16846TPSG   CA117407   6.013   1.458   0.551
16846TPSG    Si17408   6.013   1.272   0.551
16846TPSG   CA617409   6.054   1.530   0.665
16846TPSG   HH617410   6.069   1.481   0.761
16846TPSG   CA517411   6.077   1.669   0.658
16846TPSG   HA517412   6.109   1.724   0.745
16846TPSG   CA417413   6.054   1.737   0.537
16846TPSG   HA417414   6.073   1.844   0.531
16846TPSG   CA317415   6.007   1.667   0.425
16846TPSG   HA317416   5.990   1.721   0.332
16846TPSG    O117417   6.129   1.388   0.551
16846TPSG    H617418   6.129   1.486   0.551
16847TPSG   HA217419   8.612   8.001   5.428
16847TPSG   CA217420   8.639   7.950   5.336
16847TPSG   CA117421   8.664   8.020   5.217
16847TPSG    Si17422   8.664   8.206   5.217
16847TPSG   CA617423   8.705   7.948   5.103
16847TPSG   HH617424   8.720   7.997   5.007
16847TPSG   CA517425   8.728   7.809   5.110
16847TPSG   HA517426   8.760   7.754   5.023
16847TPSG   CA417427   8.705   7.741   5.231
16847TPSG   HA417428   8.724   7.634   5.237
16847TPSG   CA317429   8.658   7.811   5.343
16847TPSG   HA317430   8.641   7.757   5.436
16847TPSG    O117431   8.780   8.090   5.217
16847TPSG    H617432   8.780   7.992   5.217
16848TPSG   HA217433   7.179   7.946   1.587
16848TPSG   CA217434   7.206   7.895   1.495
16848TPSG   CA117435   7.231   7.965   1.376
16848TPSG    Si17436   7.231   8.151   1.376
16848TPSG   CA617437   7.272   7.893   1.262
16848TPSG   HH617438   7.287   7.942   1.166
16848TPSG   CA517439   7.295   7.754   1.269
16848TPSG   HA517440   7.327   7.699   1.182
16848TPSG   CA417441   7.272   7.686   1.390
16848TPSG   HA417442   7.291   7.579   1.396
16848TPSG   CA317443   7.225   7.756   1.502
16848TPSG   HA317444   7.208   7.702   1.595
16848TPSG    O117445   7.347   8.035   1.376
16848TPSG    H617446   7.347   7.937   1.376
16849TPSG   HA217447   5.679   1.659   6.621
16849TPSG   CA217448   5.706   1.710   6.713
16849TPSG   CA117449   5.731   1.640   6.832
16849TPSG    Si17450   5.731   1.454   6.832
16849TPSG   CA617451   5.772   1.712   6.946
16849TPSG   HH617452   5.787   1.663   7.042
16849TPSG   CA517453   5.795   1.851   6.939
16849TPSG   HA517454   5.827   1.906   7.026
16849TPSG   CA417455   5.772   1.919   6.818
16849TPSG   HA417456   5.791   2.026   6.812
16849TPSG   CA317457   5.725   1.849   6.706
16849TPSG   HA317458   5.708   1.903   6.613
16849TPSG    O117459   5.847   1.570   6.832
16849TPSG    H617460   5.847   1.668   6.832
16850TPSG   HA217461   1.436   1.632   8.303
16850TPSG   CA217462   1.463   1.683   8.395
16850TPSG   CA117463   1.488   1.613   8.514
16850TPSG    Si17464   1.488   1.427   8.514
16850TPSG   CA617465   1.529   1.685   8.628
16850TPSG   HH617466   1.544   1.636   8.724
16850TPSG   CA517467   1.552   1.824   8.621
16850TPSG   HA517468   1.584   1.879   8.708
16850TPSG   CA417469   1.529   1.892   8.500
16850TPSG   HA417470   1.548   1.999   8.494
16850TPSG   CA317471   1.482   1.822   8.388
16850TPSG   HA317472   1.465   1.876   8.295
16850TPSG    O117473   1.604   1.543   8.514
16850TPSG    H617474   1.604   1.641   8.514
16851TPSG   HA217475   6.817   1.615   0.761
16851TPSG   CA217476   6.844   1.666   0.853
16851TPSG   CA117477   6.869   1.596   0.972
16851TPSG    Si17478   6.869   1.410   0.972
16851TPSG   CA617479   6.910   1.668   1.086
16851TPSG   HH617480   6.925   1.619   1.182
16851TPSG   CA517481   6.933   1.807   1.079
16851TPSG   HA517482   6.965   1.862   1.166
16851TPSG   CA417483   6.910   1.875   0.958
16851TPSG   HA417484   6.929   1.982   0.952
16851TPSG   CA317485   6.863   1.805   0.846
16851TPSG   HA317486   6.846   1.859   0.753
16851TPSG    O117487   6.985   1.526   0.972
16851TPSG    H617488   6.985   1.624   0.972
16852TPSG   HA217489   7.794   7.997   4.410
16852TPSG   CA217490   7.821   7.946   4.318
16852TPSG   CA117491   7.846   8.016   4.199
16852TPSG    Si17492   7.846   8.202   4.199
16852TPSG   CA617493   7.887   7.944   4.085
16852TPSG   HH617494   7.902   7.993   3.989
16852TPSG   CA517495   7.910   7.805   4.092
16852TPSG   HA517496   7.942   7.750   4.005
16852TPSG   CA417497   7.887   7.737   4.213
16852TPSG   HA417498   7.906   7.630   4.219
16852TPSG   CA317499   7.840   7.807   4.325
16852TPSG   HA317500   7.823   7.753   4.418
16852TPSG    O117501   7.962   8.086   4.199
16852TPSG    H617502   7.962   7.988   4.199
16853TPSG   HA217503   0.902   7.976   6.950
16853TPSG   CA217504   0.929   7.925   6.858
16853TPSG   CA117505   0.954   7.995   6.739
16853TPSG    Si17506   0.954   8.181   6.739
16853TPSG   CA617507   0.995   7.923   6.625
16853TPSG   HH617508   1.010   7.972   6.529
16853TPSG   CA517509   1.018   7.784   6.632
16853TPSG   HA517510   1.050   7.729   6.545
16853TPSG   CA417511   0.995   7.716   6.753
16853TPSG   HA417512   1.014   7.609   6.759
16853TPSG   CA317513   0.948   7.786   6.865
16853TPSG   HA317514   0.931   7.732   6.958
16853TPSG    O117515   1.070   8.065   6.739
16853TPSG    H617516   1.070   7.967   6.739
16854TPSG   HA217517   6.826   8.069   6.697
16854TPSG   CA217518   6.853   8.018   6.605
16854TPSG   CA117519   6.878   8.088   6.486
16854TPSG    Si17520   6.878   8.274   6.486
16854TPSG   CA617521   6.919   8.016   6.372
16854TPSG   HH617522   6.934   8.065   6.276
16854TPSG   CA517523   6.942   7.877   6.379
16854TPSG   HA517524   6.974   7.822   6.292
16854TPSG   CA417525   6.919   7.809   6.500
16854TPSG   HA417526   6.938   7.702   6.506
16854TPSG   CA317527   6.872   7.879   6.612
16854TPSG   HA317528   6.855   7.825   6.705
16854TPSG    O117529   6.994   8.158   6.486
16854TPSG    H617530   6.994   8.060   6.486
16855TPSG   HA217531   5.578   7.984   5.613
16855TPSG   CA217532   5.605   7.933   5.521
16855TPSG   CA117533   5.630   8.003   5.402
16855TPSG    Si17534   5.630   8.189   5.402
16855TPSG   CA617535   5.671   7.931   5.288
16855TPSG   HH617536   5.686   7.980   5.192
16855TPSG   CA517537   5.694   7.792   5.295
16855TPSG   HA517538   5.726   7.737   5.208
16855TPSG   CA417539   5.671   7.724   5.416
16855TPSG   HA417540   5.690   7.617   5.422
16855TPSG   CA317541   5.624   7.794   5.528
16855TPSG   HA317542   5.607   7.740   5.621
16855TPSG    O117543   5.746   8.073   5.402
16855TPSG    H617544   5.746   7.975   5.402
16856TPSG   HA217545   3.269   1.614   1.770
16856TPSG   CA217546   3.296   1.665   1.862
16856TPSG   CA117547   3.321   1.595   1.981
16856TPSG    Si17548   3.321   1.409   1.981
16856TPSG   CA617549   3.362   1.667   2.095
16856TPSG   HH617550   3.377   1.618   2.191
16856TPSG   CA517551   3.385   1.806   2.088
16856TPSG   HA517552   3.417   1.861   2.175
16856TPSG   CA417553   3.362   1.874   1.967
16856TPSG   HA417554   3.381   1.981   1.961
16856TPSG   CA317555   3.315   1.804   1.855
16856TPSG   HA317556   3.298   1.858   1.762
16856TPSG    O117557   3.437   1.525   1.981
16856TPSG    H617558   3.437   1.623   1.981
16857TPSG   HA217559   4.821   1.552   7.988
16857TPSG   CA217560   4.794   1.603   7.896
16857TPSG   CA117561   4.769   1.533   7.777
16857TPSG    Si17562   4.769   1.347   7.777
16857TPSG   CA617563   4.728   1.605   7.663
16857TPSG   HH617564   4.713   1.556   7.567
16857TPSG   CA517565   4.705   1.744   7.670
16857TPSG   HA517566   4.673   1.799   7.583
16857TPSG   CA417567   4.728   1.812   7.791
16857TPSG   HA417568   4.709   1.919   7.797
16857TPSG   CA317569   4.775   1.742   7.903
16857TPSG   HA317570   4.792   1.796   7.996
16857TPSG    O117571   4.653   1.463   7.777
16857TPSG    H617572   4.653   1.561   7.777
16858TPSG   HA217573   6.032   8.036   6.646
16858TPSG   CA217574   5.966   7.985   6.578
16858TPSG   CA117575   5.875   8.055   6.496
16858TPSG    Si17576   5.875   8.241   6.496
16858TPSG   CA617577   5.797   7.983   6.403
16858TPSG   HH617578   5.722   8.032   6.342
16858TPSG   CA517579   5.814   7.844   6.388
16858TPSG   HA517580   5.755   7.789   6.316
16858TPSG   CA417581   5.907   7.776   6.467
16858TPSG   HA417582   5.922   7.669   6.454
16858TPSG   CA317583   5.981   7.846   6.564
16858TPSG   HA317584   6.053   7.792   6.626
16858TPSG    O117585   5.933   8.125   6.396
16858TPSG    H617586   5.933   8.027   6.396
16859TPSG   HA217587   8.821   8.033   4.703
16859TPSG   CA217588   8.848   7.982   4.611
16859TPSG   CA117589   8.873   8.052   4.492
16859TPSG    Si17590   8.873   8.238   4.492
16859TPSG   CA617591   8.914   7.980   4.378
16859TPSG   HH617592   8.929   8.029   4.282
16859TPSG   CA517593   8.937   7.841   4.385
16859TPSG   HA517594   8.969   7.786   4.298
16859TPSG   CA417595   8.914   7.773   4.506
16859TPSG   HA417596   8.933   7.666   4.512
16859TPSG   CA317597   8.867   7.843   4.618
16859TPSG   HA317598   8.850   7.789   4.711
16859TPSG    O117599   8.989   8.122   4.492
16859TPSG    H617600   8.989   8.024   4.492
16860TPSG   HA217601   7.523   1.492   3.008
16860TPSG   CA217602   7.550   1.543   3.100
16860TPSG   CA117603   7.575   1.473   3.219
16860TPSG    Si17604   7.575   1.287   3.219
16860TPSG   CA617605   7.616   1.545   3.333
16860TPSG   HH617606   7.631   1.496   3.429
16860TPSG   CA517607   7.639   1.684   3.326
16860TPSG   HA517608   7.671   1.739   3.413
16860TPSG   CA417609   7.616   1.752   3.205
16860TPSG   HA417610   7.635   1.859   3.199
16860TPSG   CA317611   7.569   1.682   3.093
16860TPSG   HA317612   7.552   1.736   3.000
16860TPSG    O117613   7.691   1.403   3.219
16860TPSG    H617614   7.691   1.501   3.219
16861TPSG   HA217615   4.375   7.964   0.953
16861TPSG   CA217616   4.402   7.913   0.861
16861TPSG   CA117617   4.427   7.983   0.742
16861TPSG    Si17618   4.427   8.169   0.742
16861TPSG   CA617619   4.468   7.911   0.628
16861TPSG   HH617620   4.483   7.960   0.532
16861TPSG   CA517621   4.491   7.772   0.635
16861TPSG   HA517622   4.523   7.717   0.548
16861TPSG   CA417623   4.468   7.704   0.756
16861TPSG   HA417624   4.487   7.597   0.762
16861TPSG   CA317625   4.421   7.774   0.868
16861TPSG   HA317626   4.404   7.720   0.961
16861TPSG    O117627   4.543   8.053   0.742
16861TPSG    H617628   4.543   7.955   0.742
16862TPSG   HA217629   3.923   1.615   8.894
16862TPSG   CA217630   3.950   1.666   8.986
16862TPSG   CA117631   3.975   1.596   9.105
16862TPSG    Si17632   3.975   1.410   9.105
16862TPSG   CA617633   4.016   1.668   9.219
16862TPSG   HH617634   4.031   1.619   9.315
16862TPSG   CA517635   4.039   1.807   9.212
16862TPSG   HA517636   4.071   1.862   9.299
16862TPSG   CA417637   4.016   1.875   9.091
16862TPSG   HA417638   4.035   1.982   9.085
16862TPSG   CA317639   3.969   1.805   8.979
16862TPSG   HA317640   3.952   1.859   8.886
16862TPSG    O117641   4.091   1.526   9.105
16862TPSG    H617642   4.091   1.624   9.105
16863TPSG   HA217643   3.429   1.649   1.054
16863TPSG   CA217644   3.456   1.700   1.146
16863TPSG   CA117645   3.481   1.630   1.265
16863TPSG    Si17646   3.481   1.444   1.265
16863TPSG   CA617647   3.522   1.702   1.379
16863TPSG   HH617648   3.537   1.653   1.475
16863TPSG   CA517649   3.545   1.841   1.372
16863TPSG   HA517650   3.577   1.896   1.459
16863TPSG   CA417651   3.522   1.909   1.251
16863TPSG   HA417652   3.541   2.016   1.245
16863TPSG   CA317653   3.475   1.839   1.139
16863TPSG   HA317654   3.458   1.893   1.046
16863TPSG    O117655   3.597   1.560   1.265
16863TPSG    H617656   3.597   1.658   1.265
16864TPSG   HA217657   2.128   1.584   7.287
16864TPSG   CA217658   2.155   1.635   7.379
16864TPSG   CA117659   2.180   1.565   7.498
16864TPSG    Si17660   2.180   1.379   7.498
16864TPSG   CA617661   2.221   1.637   7.612
16864TPSG   HH617662   2.236   1.588   7.708
16864TPSG   CA517663   2.244   1.776   7.605
16864TPSG   HA517664   2.276   1.831   7.692
16864TPSG   CA417665   2.221   1.844   7.484
16864TPSG   HA417666   2.240   1.951   7.478
16864TPSG   CA317667   2.174   1.774   7.372
16864TPSG   HA317668   2.157   1.828   7.279
16864TPSG    O117669   2.296   1.495   7.498
16864TPSG    H617670   2.296   1.593   7.498
16865TPSG   HA217671   3.815   7.999   2.912
16865TPSG   CA217672   3.842   7.948   2.820
16865TPSG   CA117673   3.867   8.018   2.701
16865TPSG    Si17674   3.867   8.204   2.701
16865TPSG   CA617675   3.908   7.946   2.587
16865TPSG   HH617676   3.923   7.995   2.491
16865TPSG   CA517677   3.931   7.807   2.594
16865TPSG   HA517678   3.963   7.752   2.507
16865TPSG   CA417679   3.908   7.739   2.715
16865TPSG   HA417680   3.927   7.632   2.721
16865TPSG   CA317681   3.861   7.809   2.827
16865TPSG   HA317682   3.844   7.755   2.920
16865TPSG    O117683   3.983   8.088   2.701
16865TPSG    H617684   3.983   7.990   2.701
16866TPSG   HA217685   3.941   8.089   8.428
16866TPSG   CA217686   3.968   8.038   8.336
16866TPSG   CA117687   3.993   8.108   8.217
16866TPSG    Si17688   3.993   8.294   8.217
16866TPSG   CA617689   4.034   8.036   8.103
16866TPSG   HH617690   4.049   8.085   8.007
16866TPSG   CA517691   4.057   7.897   8.110
16866TPSG   HA517692   4.089   7.842   8.023
16866TPSG   CA417693   4.034   7.829   8.231
16866TPSG   HA417694   4.053   7.722   8.237
16866TPSG   CA317695   3.987   7.899   8.343
16866TPSG   HA317696   3.970   7.845   8.436
16866TPSG    O117697   4.109   8.178   8.217
16866TPSG    H617698   4.109   8.080   8.217
16867TPSG   HA217699   1.601   1.632   6.123
16867TPSG   CA217700   1.628   1.683   6.215
16867TPSG   CA117701   1.653   1.613   6.334
16867TPSG    Si17702   1.653   1.427   6.334
16867TPSG   CA617703   1.694   1.685   6.448
16867TPSG   HH617704   1.709   1.636   6.544
16867TPSG   CA517705   1.717   1.824   6.441
16867TPSG   HA517706   1.749   1.879   6.528
16867TPSG   CA417707   1.694   1.892   6.320
16867TPSG   HA417708   1.713   1.999   6.314
16867TPSG   CA317709   1.647   1.822   6.208
16867TPSG   HA317710   1.630   1.876   6.115
16867TPSG    O117711   1.769   1.543   6.334
16867TPSG    H617712   1.769   1.641   6.334
16868TPSG   HA217713   2.128   8.040   7.768
16868TPSG   CA217714   2.155   7.989   7.676
16868TPSG   CA117715   2.180   8.059   7.557
16868TPSG    Si17716   2.180   8.245   7.557
16868TPSG   CA617717   2.221   7.987   7.443
16868TPSG   HH617718   2.236   8.036   7.347
16868TPSG   CA517719   2.244   7.848   7.450
16868TPSG   HA517720   2.276   7.793   7.363
16868TPSG   CA417721   2.221   7.780   7.571
16868TPSG   HA417722   2.240   7.673   7.577
16868TPSG   CA317723   2.174   7.850   7.683
16868TPSG   HA317724   2.157   7.796   7.776
16868TPSG    O117725   2.296   8.129   7.557
16868TPSG    H617726   2.296   8.031   7.557
16869TPSG   HA217727   0.857   1.617   4.434
16869TPSG   CA217728   0.884   1.668   4.526
16869TPSG   CA117729   0.909   1.598   4.645
16869TPSG    Si17730   0.909   1.412   4.645
16869TPSG   CA617731   0.950   1.670   4.759
16869TPSG   HH617732   0.965   1.621   4.855
16869TPSG   CA517733   0.973   1.809   4.752
16869TPSG   HA517734   1.005   1.864   4.839
16869TPSG   CA417735   0.950   1.877   4.631
16869TPSG   HA417736   0.969   1.984   4.625
16869TPSG   CA317737   0.903   1.807   4.519
16869TPSG   HA317738   0.886   1.861   4.426
16869TPSG    O117739   1.025   1.528   4.645
16869TPSG    H617740   1.025   1.626   4.645
16870TPSG   HA217741   3.864   1.639   4.391
16870TPSG   CA217742   3.891   1.690   4.483
16870TPSG   CA117743   3.916   1.620   4.602
16870TPSG    Si17744   3.916   1.434   4.602
16870TPSG   CA617745   3.957   1.692   4.716
16870TPSG   HH617746   3.972   1.643   4.812
16870TPSG   CA517747   3.980   1.831   4.709
16870TPSG   HA517748   4.012   1.886   4.796
16870TPSG   CA417749   3.957   1.899   4.588
16870TPSG   HA417750   3.976   2.006   4.582
16870TPSG   CA317751   3.910   1.829   4.476
16870TPSG   HA317752   3.893   1.883   4.383
16870TPSG    O117753   4.032   1.550   4.602
16870TPSG    H617754   4.032   1.648   4.602
16871TPSG   HA217755   2.748   8.071   3.814
16871TPSG   CA217756   2.775   8.020   3.722
16871TPSG   CA117757   2.800   8.090   3.603
16871TPSG    Si17758   2.800   8.276   3.603
16871TPSG   CA617759   2.841   8.018   3.489
16871TPSG   HH617760   2.856   8.067   3.393
16871TPSG   CA517761   2.864   7.879   3.496
16871TPSG   HA517762   2.896   7.824   3.409
16871TPSG   CA417763   2.841   7.811   3.617
16871TPSG   HA417764   2.860   7.704   3.623
16871TPSG   CA317765   2.794   7.881   3.729
16871TPSG   HA317766   2.777   7.827   3.822
16871TPSG    O117767   2.916   8.160   3.603
16871TPSG    H617768   2.916   8.062   3.603
16872TPSG   HA217769   3.031   1.461   7.447
16872TPSG   CA217770   3.058   1.512   7.539
16872TPSG   CA117771   3.083   1.442   7.658
16872TPSG    Si17772   3.083   1.256   7.658
16872TPSG   CA617773   3.124   1.514   7.772
16872TPSG   HH617774   3.139   1.465   7.868
16872TPSG   CA517775   3.147   1.653   7.765
16872TPSG   HA517776   3.179   1.708   7.852
16872TPSG   CA417777   3.124   1.721   7.644
16872TPSG   HA417778   3.143   1.828   7.638
16872TPSG   CA317779   3.077   1.651   7.532
16872TPSG   HA317780   3.060   1.705   7.439
16872TPSG    O117781   3.199   1.372   7.658
16872TPSG    H617782   3.199   1.470   7.658
16873TPSG   HA217783   4.426   1.563   0.788
16873TPSG   CA217784   4.453   1.614   0.880
16873TPSG   CA117785   4.478   1.544   0.999
16873TPSG    Si17786   4.478   1.358   0.999
16873TPSG   CA617787   4.519   1.616   1.113
16873TPSG   HH617788   4.534   1.567   1.209
16873TPSG   CA517789   4.542   1.755   1.106
16873TPSG   HA517790   4.574   1.810   1.193
16873TPSG   CA417791   4.519   1.823   0.985
16873TPSG   HA417792   4.538   1.930   0.979
16873TPSG   CA317793   4.472   1.753   0.873
16873TPSG   HA317794   4.455   1.807   0.780
16873TPSG    O117795   4.594   1.474   0.999
16873TPSG    H617796   4.594   1.572   0.999
16874TPSG   HA217797   2.430   1.618   1.987
16874TPSG   CA217798   2.457   1.669   2.079
16874TPSG   CA117799   2.482   1.599   2.198
16874TPSG    Si17800   2.482   1.413   2.198
16874TPSG   CA617801   2.523   1.671   2.312
16874TPSG   HH617802   2.538   1.622   2.408
16874TPSG   CA517803   2.546   1.810   2.305
16874TPSG   HA517804   2.578   1.865   2.392
16874TPSG   CA417805   2.523   1.878   2.184
16874TPSG   HA417806   2.542   1.985   2.178
16874TPSG   CA317807   2.476   1.808   2.072
16874TPSG   HA317808   2.459   1.862   1.979
16874TPSG    O117809   2.598   1.529   2.198
16874TPSG    H617810   2.598   1.627   2.198
16875TPSG   HA217811   9.065   7.966   7.473
16875TPSG   CA217812   9.092   7.915   7.381
16875TPSG   CA117813   9.117   7.985   7.262
16875TPSG    Si17814   9.117   8.171   7.262
16875TPSG   CA617815   9.158   7.913   7.148
16875TPSG   HH617816   9.173   7.962   7.052
16875TPSG   CA517817   9.181   7.774   7.155
16875TPSG   HA517818   9.213   7.719   7.068
16875TPSG   CA417819   9.158   7.706   7.276
16875TPSG   HA417820   9.177   7.599   7.282
16875TPSG   CA317821   9.111   7.776   7.388
16875TPSG   HA317822   9.094   7.722   7.481
16875TPSG    O117823   9.233   8.055   7.262
16875TPSG    H617824   9.233   7.957   7.262
16876TPSG   HA217825   1.372   1.585   4.517
16876TPSG   CA217826   1.399   1.636   4.609
16876TPSG   CA117827   1.424   1.566   4.728
16876TPSG    Si17828   1.424   1.380   4.728
16876TPSG   CA617829   1.465   1.638   4.842
16876TPSG   HH617830   1.480   1.589   4.938
16876TPSG   CA517831   1.488   1.777   4.835
16876TPSG   HA517832   1.520   1.832   4.922
16876TPSG   CA417833   1.465   1.845   4.714
16876TPSG   HA417834   1.484   1.952   4.708
16876TPSG   CA317835   1.418   1.775   4.602
16876TPSG   HA317836   1.401   1.829   4.509
16876TPSG    O117837   1.540   1.496   4.728
16876TPSG    H617838   1.540   1.594   4.728
16877TPSG   HA217839   2.683   1.529  -0.063
16877TPSG   CA217840   2.710   1.580   0.029
16877TPSG   CA117841   2.735   1.510   0.148
16877TPSG    Si17842   2.735   1.324   0.148
16877TPSG   CA617843   2.776   1.582   0.262
16877TPSG   HH617844   2.791   1.533   0.358
16877TPSG   CA517845   2.799   1.721   0.255
16877TPSG   HA517846   2.831   1.776   0.342
16877TPSG   CA417847   2.776   1.789   0.134
16877TPSG   HA417848   2.795   1.896   0.128
16877TPSG   CA317849   2.729   1.719   0.022
16877TPSG   HA317850   2.712   1.773  -0.071
16877TPSG    O117851   2.851   1.440   0.148
16877TPSG    H617852   2.851   1.538   0.148
16878TPSG   HA217853   4.762   1.544   6.721
16878TPSG   CA217854   4.789   1.595   6.813
16878TPSG   CA117855   4.814   1.525   6.932
16878TPSG    Si17856   4.814   1.339   6.932
16878TPSG   CA617857   4.855   1.597   7.046
16878TPSG   HH617858   4.870   1.548   7.142
16878TPSG   CA517859   4.878   1.736   7.039
16878TPSG   HA517860   4.910   1.791   7.126
16878TPSG   CA417861   4.855   1.804   6.918
16878TPSG   HA417862   4.874   1.911   6.912
16878TPSG   CA317863   4.808   1.734   6.806
16878TPSG   HA317864   4.791   1.788   6.713
16878TPSG    O117865   4.930   1.455   6.932
16878TPSG    H617866   4.930   1.553   6.932
16879TPSG   HA217867   7.746   8.047   2.263
16879TPSG   CA217868   7.740   7.996   2.168
16879TPSG   CA117869   7.723   8.066   2.047
16879TPSG    Si17870   7.723   8.252   2.047
16879TPSG   CA617871   7.723   7.994   1.926
16879TPSG   HH617872   7.704   8.043   1.831
16879TPSG   CA517873   7.746   7.855   1.925
16879TPSG   HA517874   7.747   7.800   1.832
16879TPSG   CA417875   7.766   7.787   2.046
16879TPSG   HA417876   7.786   7.680   2.045
16879TPSG   CA317877   7.760   7.857   2.167
16879TPSG   HA317878   7.776   7.803   2.260
16879TPSG    O117879   7.832   8.136   2.007
16879TPSG    H617880   7.832   8.038   2.007
16880TPSG   HA217881   7.253   8.047   5.636
16880TPSG   CA217882   7.280   7.996   5.544
16880TPSG   CA117883   7.305   8.066   5.425
16880TPSG    Si17884   7.305   8.252   5.425
16880TPSG   CA617885   7.346   7.994   5.311
16880TPSG   HH617886   7.361   8.043   5.215
16880TPSG   CA517887   7.369   7.855   5.318
16880TPSG   HA517888   7.401   7.800   5.231
16880TPSG   CA417889   7.346   7.787   5.439
16880TPSG   HA417890   7.365   7.680   5.445
16880TPSG   CA317891   7.299   7.857   5.551
16880TPSG   HA317892   7.282   7.803   5.644
16880TPSG    O117893   7.421   8.136   5.425
16880TPSG    H617894   7.421   8.038   5.425
16881TPSG   HA217895   4.321   7.990   8.832
16881TPSG   CA217896   4.348   7.939   8.740
16881TPSG   CA117897   4.373   8.009   8.621
16881TPSG    Si17898   4.373   8.195   8.621
16881TPSG   CA617899   4.414   7.937   8.507
16881TPSG   HH617900   4.429   7.986   8.411
16881TPSG   CA517901   4.437   7.798   8.514
16881TPSG   HA517902   4.469   7.743   8.427
16881TPSG   CA417903   4.414   7.730   8.635
16881TPSG   HA417904   4.433   7.623   8.641
16881TPSG   CA317905   4.367   7.800   8.747
16881TPSG   HA317906   4.350   7.746   8.840
16881TPSG    O117907   4.489   8.079   8.621
16881TPSG    H617908   4.489   7.981   8.621
16882TPSG   HA217909   2.125   8.065   3.064
16882TPSG   CA217910   2.152   8.014   2.972
16882TPSG   CA117911   2.177   8.084   2.853
16882TPSG    Si17912   2.177   8.270   2.853
16882TPSG   CA617913   2.218   8.012   2.739
16882TPSG   HH617914   2.233   8.061   2.643
16882TPSG   CA517915   2.241   7.873   2.746
16882TPSG   HA517916   2.273   7.818   2.659
16882TPSG   CA417917   2.218   7.805   2.867
16882TPSG   HA417918   2.237   7.698   2.873
16882TPSG   CA317919   2.171   7.875   2.979
16882TPSG   HA317920   2.154   7.821   3.072
16882TPSG    O117921   2.293   8.154   2.853
16882TPSG    H617922   2.293   8.056   2.853
16883TPSG   HA217923   5.304   8.068   0.757
16883TPSG   CA217924   5.331   8.017   0.665
16883TPSG   CA117925   5.356   8.087   0.546
16883TPSG    Si17926   5.356   8.273   0.546
16883TPSG   CA617927   5.397   8.015   0.432
16883TPSG   HH617928   5.412   8.064   0.336
16883TPSG   CA517929   5.420   7.876   0.439
16883TPSG   HA517930   5.452   7.821   0.352
16883TPSG   CA417931   5.397   7.808   0.560
16883TPSG   HA417932   5.416   7.701   0.566
16883TPSG   CA317933   5.350   7.878   0.672
16883TPSG   HA317934   5.333   7.824   0.765
16883TPSG    O117935   5.472   8.157   0.546
16883TPSG    H617936   5.472   8.059   0.546
16884TPSG   HA217937   7.416   8.032   6.561
16884TPSG   CA217938   7.443   7.981   6.469
16884TPSG   CA117939   7.468   8.051   6.350
16884TPSG    Si17940   7.468   8.237   6.350
16884TPSG   CA617941   7.509   7.979   6.236
16884TPSG   HH617942   7.524   8.028   6.140
16884TPSG   CA517943   7.532   7.840   6.243
16884TPSG   HA517944   7.564   7.785   6.156
16884TPSG   CA417945   7.509   7.772   6.364
16884TPSG   HA417946   7.528   7.665   6.370
16884TPSG   CA317947   7.462   7.842   6.476
16884TPSG   HA317948   7.445   7.788   6.569
16884TPSG    O117949   7.584   8.121   6.350
16884TPSG    H617950   7.584   8.023   6.350
16885TPSG   HA217951   4.805   8.031   6.256
16885TPSG   CA217952   4.832   7.980   6.164
16885TPSG   CA117953   4.857   8.050   6.045
16885TPSG    Si17954   4.857   8.236   6.045
16885TPSG   CA617955   4.898   7.978   5.931
16885TPSG   HH617956   4.913   8.027   5.835
16885TPSG   CA517957   4.921   7.839   5.938
16885TPSG   HA517958   4.953   7.784   5.851
16885TPSG   CA417959   4.898   7.771   6.059
16885TPSG   HA417960   4.917   7.664   6.065
16885TPSG   CA317961   4.851   7.841   6.171
16885TPSG   HA317962   4.834   7.787   6.264
16885TPSG    O117963   4.973   8.120   6.045
16885TPSG    H617964   4.973   8.022   6.045
16886TPSG   HA217965   8.162   1.491   7.534
16886TPSG   CA217966   8.189   1.542   7.626
16886TPSG   CA117967   8.214   1.472   7.745
16886TPSG    Si17968   8.214   1.286   7.745
16886TPSG   CA617969   8.255   1.544   7.859
16886TPSG   HH617970   8.270   1.495   7.955
16886TPSG   CA517971   8.278   1.683   7.852
16886TPSG   HA517972   8.310   1.738   7.939
16886TPSG   CA417973   8.255   1.751   7.731
16886TPSG   HA417974   8.274   1.858   7.725
16886TPSG   CA317975   8.208   1.681   7.619
16886TPSG   HA317976   8.191   1.735   7.526
16886TPSG    O117977   8.330   1.402   7.745
16886TPSG    H617978   8.330   1.500   7.745
16887TPSG   HA217979   4.682   7.997   9.191
16887TPSG   CA217980   4.688   7.946   9.286
16887TPSG   CA117981   4.705   8.016   9.407
16887TPSG    Si17982   4.705   8.202   9.407
16887TPSG   CA617983   4.705   7.944   9.528
16887TPSG   HH617984   4.724   7.993   9.623
16887TPSG   CA517985   4.682   7.805   9.529
16887TPSG   HA517986   4.681   7.750   9.622
16887TPSG   CA417987   4.662   7.737   9.408
16887TPSG   HA417988   4.642   7.630   9.409
16887TPSG   CA317989   4.668   7.807   9.287
16887TPSG   HA317990   4.652   7.753   9.194
16887TPSG    O117991   4.596   8.086   9.447
16887TPSG    H617992   4.596   7.988   9.447
16888TPSG   HA217993   8.611   8.036   7.153
16888TPSG   CA217994   8.638   7.985   7.061
16888TPSG   CA117995   8.663   8.055   6.942
16888TPSG    Si17996   8.663   8.241   6.942
16888TPSG   CA617997   8.704   7.983   6.828
16888TPSG   HH617998   8.719   8.032   6.732
16888TPSG   CA517999   8.727   7.844   6.835
16888TPSG   HA518000   8.759   7.789   6.748
16888TPSG   CA418001   8.704   7.776   6.956
16888TPSG   HA418002   8.723   7.669   6.962
16888TPSG   CA318003   8.657   7.846   7.068
16888TPSG   HA318004   8.640   7.792   7.161
16888TPSG    O118005   8.779   8.125   6.942
16888TPSG    H618006   8.779   8.027   6.942
16889TPS    HA218007   3.953   8.100   3.404
16889TPS    CA218008   3.980   8.049   3.312
16889TPS    CA118009   4.005   8.119   3.193
16889TPS     Si18010   4.005   8.305   3.193
16889TPS    CA618011   4.046   8.047   3.079
16889TPS    HH618012   4.061   8.096   2.983
16889TPS    CA518013   4.069   7.908   3.086
16889TPS    HA518014   4.101   7.853   2.999
16889TPS    CA418015   4.046   7.840   3.207
16889TPS    HA418016   4.065   7.733   3.213
16889TPS    CA318017   3.999   7.910   3.319
16889TPS    HA318018   3.982   7.856   3.412
16890TPS    HA218019   9.270   1.331   5.780
16890TPS    CA218020   9.297   1.382   5.872
16890TPS    CA118021   9.322   1.312   5.991
16890TPS     Si18022   9.322   1.126   5.991
16890TPS    CA618023   9.363   1.384   6.105
16890TPS    HH618024   9.378   1.335   6.201
16890TPS    CA518025   9.386   1.523   6.098
16890TPS    HA518026   9.418   1.578   6.185
16890TPS    CA418027   9.363   1.591   5.977
16890TPS    HA418028   9.382   1.698   5.971
16890TPS    CA318029   9.316   1.521   5.865
16890TPS    HA318030   9.299   1.575   5.772
16891TPS    HA218031   6.997   1.457   3.255
16891TPS    CA218032   7.024   1.508   3.347
16891TPS    CA118033   7.049   1.438   3.466
16891TPS     Si18034   7.049   1.252   3.466
16891TPS    CA618035   7.090   1.510   3.580
16891TPS    HH618036   7.105   1.461   3.676
16891TPS    CA518037   7.113   1.649   3.573
16891TPS    HA518038   7.145   1.704   3.660
16891TPS    CA418039   7.090   1.717   3.452
16891TPS    HA418040   7.109   1.824   3.446
16891TPS    CA318041   7.043   1.647   3.340
16891TPS    HA318042   7.026   1.701   3.247
16892TPS    HA218043   1.256   8.232   5.326
16892TPS    CA218044   1.283   8.181   5.234
16892TPS    CA118045   1.308   8.251   5.115
16892TPS     Si18046   1.308   8.437   5.115
16892TPS    CA618047   1.349   8.179   5.001
16892TPS    HH618048   1.364   8.228   4.905
16892TPS    CA518049   1.372   8.040   5.008
16892TPS    HA518050   1.404   7.985   4.921
16892TPS    CA418051   1.349   7.972   5.129
16892TPS    HA418052   1.368   7.865   5.135
16892TPS    CA318053   1.302   8.042   5.241
16892TPS    HA318054   1.285   7.988   5.334
16893TPS    HA218055   1.744   8.076   0.990
16893TPS    CA218056   1.771   8.025   0.898
16893TPS    CA118057   1.796   8.095   0.779
16893TPS     Si18058   1.796   8.281   0.779
16893TPS    CA618059   1.837   8.023   0.665
16893TPS    HH618060   1.852   8.072   0.569
16893TPS    CA518061   1.860   7.884   0.672
16893TPS    HA518062   1.892   7.829   0.585
16893TPS    CA418063   1.837   7.816   0.793
16893TPS    HA418064   1.856   7.709   0.799
16893TPS    CA318065   1.790   7.886   0.905
16893TPS    HA318066   1.773   7.832   0.998
16894TPS    HA218067   0.568   1.539   7.177
16894TPS    CA218068   0.595   1.590   7.269
16894TPS    CA118069   0.620   1.520   7.388
16894TPS     Si18070   0.620   1.334   7.388
16894TPS    CA618071   0.661   1.592   7.502
16894TPS    HH618072   0.676   1.543   7.598
16894TPS    CA518073   0.684   1.731   7.495
16894TPS    HA518074   0.716   1.786   7.582
16894TPS    CA418075   0.661   1.799   7.374
16894TPS    HA418076   0.680   1.906   7.368
16894TPS    CA318077   0.614   1.729   7.262
16894TPS    HA318078   0.597   1.783   7.169
16895TPS    HA218079   1.452   8.256   4.526
16895TPS    CA218080   1.479   8.205   4.434
16895TPS    CA118081   1.504   8.275   4.315
16895TPS     Si18082   1.504   8.461   4.315
16895TPS    CA618083   1.545   8.203   4.201
16895TPS    HH618084   1.560   8.252   4.105
16895TPS    CA518085   1.568   8.064   4.208
16895TPS    HA518086   1.600   8.009   4.121
16895TPS    CA418087   1.545   7.996   4.329
16895TPS    HA418088   1.564   7.889   4.335
16895TPS    CA318089   1.498   8.066   4.441
16895TPS    HA318090   1.481   8.012   4.534
16896TPS    HA218091   7.043   1.563   3.944
16896TPS    CA218092   7.070   1.614   4.036
16896TPS    CA118093   7.095   1.544   4.155
16896TPS     Si18094   7.095   1.358   4.155
16896TPS    CA618095   7.136   1.616   4.269
16896TPS    HH618096   7.151   1.567   4.365
16896TPS    CA518097   7.159   1.755   4.262
16896TPS    HA518098   7.191   1.810   4.349
16896TPS    CA418099   7.136   1.823   4.141
16896TPS    HA418100   7.155   1.930   4.135
16896TPS    CA318101   7.089   1.753   4.029
16896TPS    HA318102   7.072   1.807   3.936
16897TPS    HA218103   5.289   1.501   3.384
16897TPS    CA218104   5.250   1.552   3.471
16897TPS    CA118105   5.193   1.482   3.579
16897TPS     Si18106   5.193   1.296   3.579
16897TPS    CA618107   5.151   1.554   3.693
16897TPS    HH618108   5.101   1.505   3.776
16897TPS    CA518109   5.173   1.693   3.701
16897TPS    HA518110   5.142   1.748   3.790
16897TPS    CA418111   5.233   1.761   3.595
16897TPS    HA418112   5.252   1.868   3.602
16897TPS    CA318113   5.269   1.691   3.479
16897TPS    HA318114   5.316   1.745   3.396
16898TPS    HA218115   5.312   1.426   7.435
16898TPS    CA218116   5.339   1.477   7.527
16898TPS    CA118117   5.364   1.407   7.646
16898TPS     Si18118   5.364   1.221   7.646
16898TPS    CA618119   5.405   1.479   7.760
16898TPS    HH618120   5.420   1.430   7.856
16898TPS    CA518121   5.428   1.618   7.753
16898TPS    HA518122   5.460   1.673   7.840
16898TPS    CA418123   5.405   1.686   7.632
16898TPS    HA418124   5.424   1.793   7.626
16898TPS    CA318125   5.358   1.616   7.520
16898TPS    HA318126   5.341   1.670   7.427
16899TPS    HA218127   4.756   8.112   8.941
16899TPS    CA218128   4.783   8.061   8.849
16899TPS    CA118129   4.808   8.131   8.730
16899TPS     Si18130   4.808   8.317   8.730
16899TPS    CA618131   4.849   8.059   8.616
16899TPS    HH618132   4.864   8.108   8.520
16899TPS    CA518133   4.872   7.920   8.623
16899TPS    HA518134   4.904   7.865   8.536
16899TPS    CA418135   4.849   7.852   8.744
16899TPS    HA418136   4.868   7.745   8.750
16899TPS    CA318137   4.802   7.922   8.856
16899TPS    HA318138   4.785   7.868   8.949
16900TPS    HA218139   6.812   8.228   5.415
16900TPS    CA218140   6.839   8.177   5.323
16900TPS    CA118141   6.864   8.247   5.204
16900TPS     Si18142   6.864   8.433   5.204
16900TPS    CA618143   6.905   8.175   5.090
16900TPS    HH618144   6.920   8.224   4.994
16900TPS    CA518145   6.928   8.036   5.097
16900TPS    HA518146   6.960   7.981   5.010
16900TPS    CA418147   6.905   7.968   5.218
16900TPS    HA418148   6.924   7.861   5.224
16900TPS    CA318149   6.858   8.038   5.330
16900TPS    HA318150   6.841   7.984   5.423
16901TPS    HA218151   7.583   1.619   3.554
16901TPS    CA218152   7.610   1.670   3.646
16901TPS    CA118153   7.635   1.600   3.765
16901TPS     Si18154   7.635   1.414   3.765
16901TPS    CA618155   7.676   1.672   3.879
16901TPS    HH618156   7.691   1.623   3.975
16901TPS    CA518157   7.699   1.811   3.872
16901TPS    HA518158   7.731   1.866   3.959
16901TPS    CA418159   7.676   1.879   3.751
16901TPS    HA418160   7.695   1.986   3.745
16901TPS    CA318161   7.629   1.809   3.639
16901TPS    HA318162   7.612   1.863   3.546
16902TPS    HA218163   7.292   1.470   5.422
16902TPS    CA218164   7.319   1.521   5.514
16902TPS    CA118165   7.344   1.451   5.633
16902TPS     Si18166   7.344   1.265   5.633
16902TPS    CA618167   7.385   1.523   5.747
16902TPS    HH618168   7.400   1.474   5.843
16902TPS    CA518169   7.408   1.662   5.740
16902TPS    HA518170   7.440   1.717   5.827
16902TPS    CA418171   7.385   1.730   5.619
16902TPS    HA418172   7.404   1.837   5.613
16902TPS    CA318173   7.338   1.660   5.507
16902TPS    HA318174   7.321   1.714   5.414
16903TPS    HA218175   7.240   1.514   0.788
16903TPS    CA218176   7.147   1.565   0.765
16903TPS    CA118177   7.031   1.495   0.727
16903TPS     Si18178   7.031   1.309   0.727
16903TPS    CA618179   6.912   1.567   0.705
16903TPS    HH618180   6.821   1.518   0.671
16903TPS    CA518181   6.907   1.706   0.729
16903TPS    HA518182   6.815   1.761   0.713
16903TPS    CA418183   7.022   1.774   0.769
16903TPS    HA418184   7.018   1.881   0.789
16903TPS    CA318185   7.143   1.704   0.785
16903TPS    HA318186   7.232   1.758   0.816
16904TPS    HA218187   8.963   1.357   5.328
16904TPS    CA218188   8.990   1.408   5.420
16904TPS    CA118189   9.015   1.338   5.539
16904TPS     Si18190   9.015   1.152   5.539
16904TPS    CA618191   9.056   1.410   5.653
16904TPS    HH618192   9.071   1.361   5.749
16904TPS    CA518193   9.079   1.549   5.646
16904TPS    HA518194   9.111   1.604   5.733
16904TPS    CA418195   9.056   1.617   5.525
16904TPS    HA418196   9.075   1.724   5.519
16904TPS    CA318197   9.009   1.547   5.413
16904TPS    HA318198   8.992   1.601   5.320
16905TPS    HA218199   3.936   1.599   4.933
16905TPS    CA218200   3.963   1.650   5.025
16905TPS    CA118201   3.988   1.580   5.144
16905TPS     Si18202   3.988   1.394   5.144
16905TPS    CA618203   4.029   1.652   5.258
16905TPS    HH618204   4.044   1.603   5.354
16905TPS    CA518205   4.052   1.791   5.251
16905TPS    HA518206   4.084   1.846   5.338
16905TPS    CA418207   4.029   1.859   5.130
16905TPS    HA418208   4.048   1.966   5.124
16905TPS    CA318209   3.982   1.789   5.018
16905TPS    HA318210   3.965   1.843   4.925
16906TPS    HA218211   6.309   1.605   2.248
16906TPS    CA218212   6.336   1.656   2.340
16906TPS    CA118213   6.361   1.586   2.459
16906TPS     Si18214   6.361   1.400   2.459
16906TPS    CA618215   6.402   1.658   2.573
16906TPS    HH618216   6.417   1.609   2.669
16906TPS    CA518217   6.425   1.797   2.566
16906TPS    HA518218   6.457   1.852   2.653
16906TPS    CA418219   6.402   1.865   2.445
16906TPS    HA418220   6.421   1.972   2.439
16906TPS    CA318221   6.355   1.795   2.333
16906TPS    HA318222   6.338   1.849   2.240
16907TPS    HA218223   6.740   8.115   3.284
16907TPS    CA218224   6.767   8.064   3.192
16907TPS    CA118225   6.792   8.134   3.073
16907TPS     Si18226   6.792   8.320   3.073
16907TPS    CA618227   6.833   8.062   2.959
16907TPS    HH618228   6.848   8.111   2.863
16907TPS    CA518229   6.856   7.923   2.966
16907TPS    HA518230   6.888   7.868   2.879
16907TPS    CA418231   6.833   7.855   3.087
16907TPS    HA418232   6.852   7.748   3.093
16907TPS    CA318233   6.786   7.925   3.199
16907TPS    HA318234   6.769   7.871   3.292
16908TPS    HA218235   6.802   1.608   2.917
16908TPS    CA218236   6.829   1.659   3.009
16908TPS    CA118237   6.854   1.589   3.128
16908TPS     Si18238   6.854   1.403   3.128
16908TPS    CA618239   6.895   1.661   3.242
16908TPS    HH618240   6.910   1.612   3.338
16908TPS    CA518241   6.918   1.800   3.235
16908TPS    HA518242   6.950   1.855   3.322
16908TPS    CA418243   6.895   1.868   3.114
16908TPS    HA418244   6.914   1.975   3.108
16908TPS    CA318245   6.848   1.798   3.002
16908TPS    HA318246   6.831   1.852   2.909
16909TPS    HA218247   6.026   1.410   5.168
16909TPS    CA218248   6.053   1.461   5.260
16909TPS    CA118249   6.078   1.391   5.379
16909TPS     Si18250   6.078   1.205   5.379
16909TPS    CA618251   6.119   1.463   5.493
16909TPS    HH618252   6.134   1.414   5.589
16909TPS    CA518253   6.142   1.602   5.486
16909TPS    HA518254   6.174   1.657   5.573
16909TPS    CA418255   6.119   1.670   5.365
16909TPS    HA418256   6.138   1.777   5.359
16909TPS    CA318257   6.072   1.600   5.253
16909TPS    HA318258   6.055   1.654   5.160
16910TPS    HA218259   7.783   1.348   8.027
16910TPS    CA218260   7.810   1.399   8.119
16910TPS    CA118261   7.835   1.329   8.238
16910TPS     Si18262   7.835   1.143   8.238
16910TPS    CA618263   7.876   1.401   8.352
16910TPS    HH618264   7.891   1.352   8.448
16910TPS    CA518265   7.899   1.540   8.345
16910TPS    HA518266   7.931   1.595   8.432
16910TPS    CA418267   7.876   1.608   8.224
16910TPS    HA418268   7.895   1.715   8.218
16910TPS    CA318269   7.829   1.538   8.112
16910TPS    HA318270   7.812   1.592   8.019
16911TPS    HA218271   1.398   8.127   7.782
16911TPS    CA218272   1.425   8.076   7.690
16911TPS    CA118273   1.450   8.146   7.571
16911TPS     Si18274   1.450   8.332   7.571
16911TPS    CA618275   1.491   8.074   7.457
16911TPS    HH618276   1.506   8.123   7.361
16911TPS    CA518277   1.514   7.935   7.464
16911TPS    HA518278   1.546   7.880   7.377
16911TPS    CA418279   1.491   7.867   7.585
16911TPS    HA418280   1.510   7.760   7.591
16911TPS    CA318281   1.444   7.937   7.697
16911TPS    HA318282   1.427   7.883   7.790
16912TPS    HA218283   3.015   1.566   4.504
16912TPS    CA218284   3.042   1.617   4.596
16912TPS    CA118285   3.067   1.547   4.715
16912TPS     Si18286   3.067   1.361   4.715
16912TPS    CA618287   3.108   1.619   4.829
16912TPS    HH618288   3.123   1.570   4.925
16912TPS    CA518289   3.131   1.758   4.822
16912TPS    HA518290   3.163   1.813   4.909
16912TPS    CA418291   3.108   1.826   4.701
16912TPS    HA418292   3.127   1.933   4.695
16912TPS    CA318293   3.061   1.756   4.589
16912TPS    HA318294   3.044   1.810   4.496
16913TPS    HA218295   7.517   1.618   8.910
16913TPS    CA218296   7.544   1.669   9.002
16913TPS    CA118297   7.569   1.599   9.121
16913TPS     Si18298   7.569   1.413   9.121
16913TPS    CA618299   7.610   1.671   9.235
16913TPS    HH618300   7.625   1.622   9.331
16913TPS    CA518301   7.633   1.810   9.228
16913TPS    HA518302   7.665   1.865   9.315
16913TPS    CA418303   7.610   1.878   9.107
16913TPS    HA418304   7.629   1.985   9.101
16913TPS    CA318305   7.563   1.808   8.995
16913TPS    HA318306   7.546   1.862   8.902
16914TPS    HA218307   8.613   1.496   5.703
16914TPS    CA218308   8.640   1.547   5.795
16914TPS    CA118309   8.665   1.477   5.914
16914TPS     Si18310   8.665   1.291   5.914
16914TPS    CA618311   8.706   1.549   6.028
16914TPS    HH618312   8.721   1.500   6.124
16914TPS    CA518313   8.729   1.688   6.021
16914TPS    HA518314   8.761   1.743   6.108
16914TPS    CA418315   8.706   1.756   5.900
16914TPS    HA418316   8.725   1.863   5.894
16914TPS    CA318317   8.659   1.686   5.788
16914TPS    HA318318   8.642   1.740   5.695
16915TPS    HA218319   1.330   8.035   6.960
16915TPS    CA218320   1.357   7.984   6.868
16915TPS    CA118321   1.382   8.054   6.749
16915TPS     Si18322   1.382   8.240   6.749
16915TPS    CA618323   1.423   7.982   6.635
16915TPS    HH618324   1.438   8.031   6.539
16915TPS    CA518325   1.446   7.843   6.642
16915TPS    HA518326   1.478   7.788   6.555
16915TPS    CA418327   1.423   7.775   6.763
16915TPS    HA418328   1.442   7.668   6.769
16915TPS    CA318329   1.376   7.845   6.875
16915TPS    HA318330   1.359   7.791   6.968
16916TPS    HA218331   6.114   1.590   6.360
16916TPS    CA218332   6.141   1.641   6.452
16916TPS    CA118333   6.166   1.571   6.571
16916TPS     Si18334   6.166   1.385   6.571
16916TPS    CA618335   6.207   1.643   6.685
16916TPS    HH618336   6.222   1.594   6.781
16916TPS    CA518337   6.230   1.782   6.678
16916TPS    HA518338   6.262   1.837   6.765
16916TPS    CA418339   6.207   1.850   6.557
16916TPS    HA418340   6.226   1.957   6.551
16916TPS    CA318341   6.160   1.780   6.445
16916TPS    HA318342   6.143   1.834   6.352
16917TPS    HA218343   5.130   1.491   3.915
16917TPS    CA218344   5.157   1.542   4.007
16917TPS    CA118345   5.182   1.472   4.126
16917TPS     Si18346   5.182   1.286   4.126
16917TPS    CA618347   5.223   1.544   4.240
16917TPS    HH618348   5.238   1.495   4.336
16917TPS    CA518349   5.246   1.683   4.233
16917TPS    HA518350   5.278   1.738   4.320
16917TPS    CA418351   5.223   1.751   4.112
16917TPS    HA418352   5.242   1.858   4.106
16917TPS    CA318353   5.176   1.681   4.000
16917TPS    HA318354   5.159   1.735   3.907
16918TPS    HA218355   2.740   8.093   7.023
16918TPS    CA218356   2.767   8.042   6.931
16918TPS    CA118357   2.792   8.112   6.812
16918TPS     Si18358   2.792   8.298   6.812
16918TPS    CA618359   2.833   8.040   6.698
16918TPS    HH618360   2.848   8.089   6.602
16918TPS    CA518361   2.856   7.901   6.705
16918TPS    HA518362   2.888   7.846   6.618
16918TPS    CA418363   2.833   7.833   6.826
16918TPS    HA418364   2.852   7.726   6.832
16918TPS    CA318365   2.786   7.903   6.938
16918TPS    HA318366   2.769   7.849   7.031
16919TPS    HA218367   8.873   8.153   0.717
16919TPS    CA218368   8.900   8.102   0.625
16919TPS    CA118369   8.925   8.172   0.506
16919TPS     Si18370   8.925   8.358   0.506
16919TPS    CA618371   8.966   8.100   0.392
16919TPS    HH618372   8.981   8.149   0.296
16919TPS    CA518373   8.989   7.961   0.399
16919TPS    HA518374   9.021   7.906   0.312
16919TPS    CA418375   8.966   7.893   0.520
16919TPS    HA418376   8.985   7.786   0.526
16919TPS    CA318377   8.919   7.963   0.632
16919TPS    HA318378   8.902   7.909   0.725
16920TPS    HA218379   1.092   8.151   6.340
16920TPS    CA218380   1.119   8.100   6.248
16920TPS    CA118381   1.144   8.170   6.129
16920TPS     Si18382   1.144   8.356   6.129
16920TPS    CA618383   1.185   8.098   6.015
16920TPS    HH618384   1.200   8.147   5.919
16920TPS    CA518385   1.208   7.959   6.022
16920TPS    HA518386   1.240   7.904   5.935
16920TPS    CA418387   1.185   7.891   6.143
16920TPS    HA418388   1.204   7.784   6.149
16920TPS    CA318389   1.138   7.961   6.255
16920TPS    HA318390   1.121   7.907   6.348
16921TPS    HA218391   9.034   8.225   4.284
16921TPS    CA218392   9.061   8.174   4.192
16921TPS    CA118393   9.086   8.244   4.073
16921TPS     Si18394   9.086   8.430   4.073
16921TPS    CA618395   9.127   8.172   3.959
16921TPS    HH618396   9.142   8.221   3.863
16921TPS    CA518397   9.150   8.033   3.966
16921TPS    HA518398   9.182   7.978   3.879
16921TPS    CA418399   9.127   7.965   4.087
16921TPS    HA418400   9.146   7.858   4.093
16921TPS    CA318401   9.080   8.035   4.199
16921TPS    HA318402   9.063   7.981   4.292
16922TPS    HA218403   2.814   1.460   2.874
16922TPS    CA218404   2.808   1.511   2.969
16922TPS    CA118405   2.791   1.441   3.090
16922TPS     Si18406   2.791   1.255   3.090
16922TPS    CA618407   2.791   1.513   3.211
16922TPS    HH618408   2.772   1.464   3.306
16922TPS    CA518409   2.814   1.652   3.212
16922TPS    HA518410   2.815   1.707   3.305
16922TPS    CA418411   2.834   1.720   3.091
16922TPS    HA418412   2.854   1.827   3.092
16922TPS    CA318413   2.828   1.650   2.970
16922TPS    HA318414   2.844   1.704   2.877
16923TPS    HA218415   8.551   8.169   3.481
16923TPS    CA218416   8.578   8.118   3.389
16923TPS    CA118417   8.603   8.188   3.270
16923TPS     Si18418   8.603   8.374   3.270
16923TPS    CA618419   8.644   8.116   3.156
16923TPS    HH618420   8.659   8.165   3.060
16923TPS    CA518421   8.667   7.977   3.163
16923TPS    HA518422   8.699   7.922   3.076
16923TPS    CA418423   8.644   7.909   3.284
16923TPS    HA418424   8.663   7.802   3.290
16923TPS    CA318425   8.597   7.979   3.396
16923TPS    HA318426   8.580   7.925   3.489
16924TPS    HA218427   7.334   1.524   0.962
16924TPS    CA218428   7.361   1.575   1.054
16924TPS    CA118429   7.386   1.505   1.173
16924TPS     Si18430   7.386   1.319   1.173
16924TPS    CA618431   7.427   1.577   1.287
16924TPS    HH618432   7.442   1.528   1.383
16924TPS    CA518433   7.450   1.716   1.280
16924TPS    HA518434   7.482   1.771   1.367
16924TPS    CA418435   7.427   1.784   1.159
16924TPS    HA418436   7.446   1.891   1.153
16924TPS    CA318437   7.380   1.714   1.047
16924TPS    HA318438   7.363   1.768   0.954
16925TPS    HA218439   3.400   8.190   9.658
16925TPS    CA218440   3.427   8.139   9.566
16925TPS    CA118441   3.452   8.209   9.447
16925TPS     Si18442   3.452   8.395   9.447
16925TPS    CA618443   3.493   8.137   9.333
16925TPS    HH618444   3.508   8.186   9.237
16925TPS    CA518445   3.516   7.998   9.340
16925TPS    HA518446   3.548   7.943   9.253
16925TPS    CA418447   3.493   7.930   9.461
16925TPS    HA418448   3.512   7.823   9.467
16925TPS    CA318449   3.446   8.000   9.573
16925TPS    HA318450   3.429   7.946   9.666
16926TPS    HA218451   2.671   8.068   5.720
16926TPS    CA218452   2.698   8.017   5.628
16926TPS    CA118453   2.723   8.087   5.509
16926TPS     Si18454   2.723   8.273   5.509
16926TPS    CA618455   2.764   8.015   5.395
16926TPS    HH618456   2.779   8.064   5.299
16926TPS    CA518457   2.787   7.876   5.402
16926TPS    HA518458   2.819   7.821   5.315
16926TPS    CA418459   2.764   7.808   5.523
16926TPS    HA418460   2.783   7.701   5.529
16926TPS    CA318461   2.717   7.878   5.635
16926TPS    HA318462   2.700   7.824   5.728
16927TPS    HA218463   2.766   8.168   8.894
16927TPS    CA218464   2.793   8.117   8.802
16927TPS    CA118465   2.818   8.187   8.683
16927TPS     Si18466   2.818   8.373   8.683
16927TPS    CA618467   2.859   8.115   8.569
16927TPS    HH618468   2.874   8.164   8.473
16927TPS    CA518469   2.882   7.976   8.576
16927TPS    HA518470   2.914   7.921   8.489
16927TPS    CA418471   2.859   7.908   8.697
16927TPS    HA418472   2.878   7.801   8.703
16927TPS    CA318473   2.812   7.978   8.809
16927TPS    HA318474   2.795   7.924   8.902
16928TPS    HA218475   9.494   1.408   2.993
16928TPS    CA218476   9.521   1.459   3.085
16928TPS    CA118477   9.546   1.389   3.204
16928TPS     Si18478   9.546   1.203   3.204
16928TPS    CA618479   9.587   1.461   3.318
16928TPS    HH618480   9.602   1.412   3.414
16928TPS    CA518481   9.610   1.600   3.311
16928TPS    HA518482   9.642   1.655   3.398
16928TPS    CA418483   9.587   1.668   3.190
16928TPS    HA418484   9.606   1.775   3.184
16928TPS    CA318485   9.540   1.598   3.078
16928TPS    HA318486   9.523   1.652   2.985
16929TPS    HA218487   3.941   1.541   2.415
16929TPS    CA218488   3.968   1.592   2.507
16929TPS    CA118489   3.993   1.522   2.626
16929TPS     Si18490   3.993   1.336   2.626
16929TPS    CA618491   4.034   1.594   2.740
16929TPS    HH618492   4.049   1.545   2.836
16929TPS    CA518493   4.057   1.733   2.733
16929TPS    HA518494   4.089   1.788   2.820
16929TPS    CA418495   4.034   1.801   2.612
16929TPS    HA418496   4.053   1.908   2.606
16929TPS    CA318497   3.987   1.731   2.500
16929TPS    HA318498   3.970   1.785   2.407
16930TPS    HA218499   0.655   1.374   9.310
16930TPS    CA218500   0.682   1.425   9.402
16930TPS    CA118501   0.707   1.355   9.521
16930TPS     Si18502   0.707   1.169   9.521
16930TPS    CA618503   0.748   1.427   9.635
16930TPS    HH618504   0.763   1.378   9.731
16930TPS    CA518505   0.771   1.566   9.628
16930TPS    HA518506   0.803   1.621   9.715
16930TPS    CA418507   0.748   1.634   9.507
16930TPS    HA418508   0.767   1.741   9.501
16930TPS    CA318509   0.701   1.564   9.395
16930TPS    HA318510   0.684   1.618   9.302
16931TPS    HA218511   6.986   8.016   5.771
16931TPS    CA218512   7.013   7.965   5.679
16931TPS    CA118513   7.038   8.035   5.560
16931TPS     Si18514   7.038   8.221   5.560
16931TPS    CA618515   7.079   7.963   5.446
16931TPS    HH618516   7.094   8.012   5.350
16931TPS    CA518517   7.102   7.824   5.453
16931TPS    HA518518   7.134   7.769   5.366
16931TPS    CA418519   7.079   7.756   5.574
16931TPS    HA418520   7.098   7.649   5.580
16931TPS    CA318521   7.032   7.826   5.686
16931TPS    HA318522   7.015   7.772   5.779
16932TPS    HA218523   9.387   1.558   0.887
16932TPS    CA218524   9.414   1.609   0.979
16932TPS    CA118525   9.439   1.539   1.098
16932TPS     Si18526   9.439   1.353   1.098
16932TPS    CA618527   9.480   1.611   1.212
16932TPS    HH618528   9.495   1.562   1.308
16932TPS    CA518529   9.503   1.750   1.205
16932TPS    HA518530   9.535   1.805   1.292
16932TPS    CA418531   9.480   1.818   1.084
16932TPS    HA418532   9.499   1.925   1.078
16932TPS    CA318533   9.433   1.748   0.972
16932TPS    HA318534   9.416   1.802   0.879
16933TPS    HA218535   5.653   1.375   0.072
16933TPS    CA218536   5.680   1.426   0.164
16933TPS    CA118537   5.705   1.356   0.283
16933TPS     Si18538   5.705   1.170   0.283
16933TPS    CA618539   5.746   1.428   0.397
16933TPS    HH618540   5.761   1.379   0.493
16933TPS    CA518541   5.769   1.567   0.390
16933TPS    HA518542   5.801   1.622   0.477
16933TPS    CA418543   5.746   1.635   0.269
16933TPS    HA418544   5.765   1.742   0.263
16933TPS    CA318545   5.699   1.565   0.157
16933TPS    HA318546   5.682   1.619   0.064
16934TPS    HA218547   1.590   1.540   5.578
16934TPS    CA218548   1.617   1.591   5.670
16934TPS    CA118549   1.642   1.521   5.789
16934TPS     Si18550   1.642   1.335   5.789
16934TPS    CA618551   1.683   1.593   5.903
16934TPS    HH618552   1.698   1.544   5.999
16934TPS    CA518553   1.706   1.732   5.896
16934TPS    HA518554   1.738   1.787   5.983
16934TPS    CA418555   1.683   1.800   5.775
16934TPS    HA418556   1.702   1.907   5.769
16934TPS    CA318557   1.636   1.730   5.663
16934TPS    HA318558   1.619   1.784   5.570
16935TPS    HA218559   4.904   1.439   0.998
16935TPS    CA218560   4.931   1.490   1.090
16935TPS    CA118561   4.956   1.420   1.209
16935TPS     Si18562   4.956   1.234   1.209
16935TPS    CA618563   4.997   1.492   1.323
16935TPS    HH618564   5.012   1.443   1.419
16935TPS    CA518565   5.020   1.631   1.316
16935TPS    HA518566   5.052   1.686   1.403
16935TPS    CA418567   4.997   1.699   1.195
16935TPS    HA418568   5.016   1.806   1.189
16935TPS    CA318569   4.950   1.629   1.083
16935TPS    HA318570   4.933   1.683   0.990
16936TPS    HA218571   1.848   1.580   3.994
16936TPS    CA218572   1.875   1.631   4.086
16936TPS    CA118573   1.900   1.561   4.205
16936TPS     Si18574   1.900   1.375   4.205
16936TPS    CA618575   1.941   1.633   4.319
16936TPS    HH618576   1.956   1.584   4.415
16936TPS    CA518577   1.964   1.772   4.312
16936TPS    HA518578   1.996   1.827   4.399
16936TPS    CA418579   1.941   1.840   4.191
16936TPS    HA418580   1.960   1.947   4.185
16936TPS    CA318581   1.894   1.770   4.079
16936TPS    HA318582   1.877   1.824   3.986
16937TPS    HA218583   1.691   8.066   6.429
16937TPS    CA218584   1.605   8.015   6.387
16937TPS    CA118585   1.492   8.085   6.341
16937TPS     Si18586   1.492   8.271   6.341
16937TPS    CA618587   1.387   8.013   6.281
16937TPS    HH618588   1.295   8.062   6.249
16937TPS    CA518589   1.398   7.874   6.260
16937TPS    HA518590   1.317   7.819   6.213
16937TPS    CA418591   1.513   7.806   6.303
16937TPS    HA418592   1.522   7.699   6.285
16937TPS    CA318593   1.615   7.876   6.369
16937TPS    HA318594   1.703   7.822   6.402
16938TPS    HA218595   1.047   8.040   7.579
16938TPS    CA218596   1.074   7.989   7.487
16938TPS    CA118597   1.099   8.059   7.368
16938TPS     Si18598   1.099   8.245   7.368
16938TPS    CA618599   1.140   7.987   7.254
16938TPS    HH618600   1.155   8.036   7.158
16938TPS    CA518601   1.163   7.848   7.261
16938TPS    HA518602   1.195   7.793   7.174
16938TPS    CA418603   1.140   7.780   7.382
16938TPS    HA418604   1.159   7.673   7.388
16938TPS    CA318605   1.093   7.850   7.494
16938TPS    HA318606   1.076   7.796   7.587
16939TPS    HA218607   2.505   8.176   3.373
16939TPS    CA218608   2.532   8.125   3.281
16939TPS    CA118609   2.557   8.195   3.162
16939TPS     Si18610   2.557   8.381   3.162
16939TPS    CA618611   2.598   8.123   3.048
16939TPS    HH618612   2.613   8.172   2.952
16939TPS    CA518613   2.621   7.984   3.055
16939TPS    HA518614   2.653   7.929   2.968
16939TPS    CA418615   2.598   7.916   3.176
16939TPS    HA418616   2.617   7.809   3.182
16939TPS    CA318617   2.551   7.986   3.288
16939TPS    HA318618   2.534   7.932   3.381
16940TPS    HA218619   9.231   8.131   8.710
16940TPS    CA218620   9.258   8.080   8.618
16940TPS    CA118621   9.283   8.150   8.499
16940TPS     Si18622   9.283   8.336   8.499
16940TPS    CA618623   9.324   8.078   8.385
16940TPS    HH618624   9.339   8.127   8.289
16940TPS    CA518625   9.347   7.939   8.392
16940TPS    HA518626   9.379   7.884   8.305
16940TPS    CA418627   9.324   7.871   8.513
16940TPS    HA418628   9.343   7.764   8.519
16940TPS    CA318629   9.277   7.941   8.625
16940TPS    HA318630   9.260   7.887   8.718
16941TPS    HA218631   9.121   8.123   2.803
16941TPS    CA218632   9.148   8.072   2.711
16941TPS    CA118633   9.173   8.142   2.592
16941TPS     Si18634   9.173   8.328   2.592
16941TPS    CA618635   9.214   8.070   2.478
16941TPS    HH618636   9.229   8.119   2.382
16941TPS    CA518637   9.237   7.931   2.485
16941TPS    HA518638   9.269   7.876   2.398
16941TPS    CA418639   9.214   7.863   2.606
16941TPS    HA418640   9.233   7.756   2.612
16941TPS    CA318641   9.167   7.933   2.718
16941TPS    HA318642   9.150   7.879   2.811
16942TPS    HA218643   3.189   8.058   5.045
16942TPS    CA218644   3.216   8.007   4.953
16942TPS    CA118645   3.241   8.077   4.834
16942TPS     Si18646   3.241   8.263   4.834
16942TPS    CA618647   3.282   8.005   4.720
16942TPS    HH618648   3.297   8.054   4.624
16942TPS    CA518649   3.305   7.866   4.727
16942TPS    HA518650   3.337   7.811   4.640
16942TPS    CA418651   3.282   7.798   4.848
16942TPS    HA418652   3.301   7.691   4.854
16942TPS    CA318653   3.235   7.868   4.960
16942TPS    HA318654   3.218   7.814   5.053
16943TPS    HA218655   1.332   1.434   8.535
16943TPS    CA218656   1.338   1.485   8.440
16943TPS    CA118657   1.355   1.415   8.319
16943TPS     Si18658   1.355   1.229   8.319
16943TPS    CA618659   1.355   1.487   8.198
16943TPS    HH618660   1.374   1.438   8.103
16943TPS    CA518661   1.332   1.626   8.197
16943TPS    HA518662   1.331   1.681   8.104
16943TPS    CA418663   1.312   1.694   8.318
16943TPS    HA418664   1.292   1.801   8.317
16943TPS    CA318665   1.318   1.624   8.439
16943TPS    HA318666   1.302   1.678   8.532
16944TPS    HA218667   1.863   1.394   3.328
16944TPS    CA218668   1.857   1.445   3.423
16944TPS    CA118669   1.840   1.375   3.544
16944TPS     Si18670   1.840   1.189   3.544
16944TPS    CA618671   1.840   1.447   3.665
16944TPS    HH618672   1.821   1.398   3.760
16944TPS    CA518673   1.863   1.586   3.666
16944TPS    HA518674   1.864   1.641   3.759
16944TPS    CA418675   1.883   1.654   3.545
16944TPS    HA418676   1.903   1.761   3.546
16944TPS    CA318677   1.877   1.584   3.424
16944TPS    HA318678   1.893   1.638   3.331
16945TPS    HA218679   6.640   1.639   7.272
16945TPS    CA218680   6.667   1.690   7.364
16945TPS    CA118681   6.692   1.620   7.483
16945TPS     Si18682   6.692   1.434   7.483
16945TPS    CA618683   6.733   1.692   7.597
16945TPS    HH618684   6.748   1.643   7.693
16945TPS    CA518685   6.756   1.831   7.590
16945TPS    HA518686   6.788   1.886   7.677
16945TPS    CA418687   6.733   1.899   7.469
16945TPS    HA418688   6.752   2.006   7.463
16945TPS    CA318689   6.686   1.829   7.357
16945TPS    HA318690   6.669   1.883   7.264
16946TPS    HA218691   6.842   8.044   7.127
16946TPS    CA218692   6.803   7.993   7.040
16946TPS    CA118693   6.746   8.063   6.932
16946TPS     Si18694   6.746   8.249   6.932
16946TPS    CA618695   6.704   7.991   6.818
16946TPS    HH618696   6.654   8.040   6.735
16946TPS    CA518697   6.726   7.852   6.810
16946TPS    HA518698   6.695   7.797   6.721
16946TPS    CA418699   6.786   7.784   6.916
16946TPS    HA418700   6.805   7.677   6.909
16946TPS    CA318701   6.822   7.854   7.032
16946TPS    HA318702   6.869   7.800   7.115
16947TPS    HA218703   4.099   8.040   4.691
16947TPS    CA218704   4.126   7.989   4.599
16947TPS    CA118705   4.151   8.059   4.480
16947TPS     Si18706   4.151   8.245   4.480
16947TPS    CA618707   4.192   7.987   4.366
16947TPS    HH618708   4.207   8.036   4.270
16947TPS    CA518709   4.215   7.848   4.373
16947TPS    HA518710   4.247   7.793   4.286
16947TPS    CA418711   4.192   7.780   4.494
16947TPS    HA418712   4.211   7.673   4.500
16947TPS    CA318713   4.145   7.850   4.606
16947TPS    HA318714   4.128   7.796   4.699
16948TPS    HA218715   5.527   8.192   7.415
16948TPS    CA218716   5.554   8.141   7.323
16948TPS    CA118717   5.579   8.211   7.204
16948TPS     Si18718   5.579   8.397   7.204
16948TPS    CA618719   5.620   8.139   7.090
16948TPS    HH618720   5.635   8.188   6.994
16948TPS    CA518721   5.643   8.000   7.097
16948TPS    HA518722   5.675   7.945   7.010
16948TPS    CA418723   5.620   7.932   7.218
16948TPS    HA418724   5.639   7.825   7.224
16948TPS    CA318725   5.573   8.002   7.330
16948TPS    HA318726   5.556   7.948   7.423
16949TPS    HA218727   1.790   8.082   2.064
16949TPS    CA218728   1.817   8.031   1.972
16949TPS    CA118729   1.842   8.101   1.853
16949TPS     Si18730   1.842   8.287   1.853
16949TPS    CA618731   1.883   8.029   1.739
16949TPS    HH618732   1.898   8.078   1.643
16949TPS    CA518733   1.906   7.890   1.746
16949TPS    HA518734   1.938   7.835   1.659
16949TPS    CA418735   1.883   7.822   1.867
16949TPS    HA418736   1.902   7.715   1.873
16949TPS    CA318737   1.836   7.892   1.979
16949TPS    HA318738   1.819   7.838   2.072
16950TPS    HA218739   8.220   1.487   3.383
16950TPS    CA218740   8.247   1.538   3.475
16950TPS    CA118741   8.272   1.468   3.594
16950TPS     Si18742   8.272   1.282   3.594
16950TPS    CA618743   8.313   1.540   3.708
16950TPS    HH618744   8.328   1.491   3.804
16950TPS    CA518745   8.336   1.679   3.701
16950TPS    HA518746   8.368   1.734   3.788
16950TPS    CA418747   8.313   1.747   3.580
16950TPS    HA418748   8.332   1.854   3.574
16950TPS    CA318749   8.266   1.677   3.468
16950TPS    HA318750   8.249   1.731   3.375
16951TPS    HA218751   3.961   1.636   7.570
16951TPS    CA218752   3.988   1.687   7.662
16951TPS    CA118753   4.013   1.617   7.781
16951TPS     Si18754   4.013   1.431   7.781
16951TPS    CA618755   4.054   1.689   7.895
16951TPS    HH618756   4.069   1.640   7.991
16951TPS    CA518757   4.077   1.828   7.888
16951TPS    HA518758   4.109   1.883   7.975
16951TPS    CA418759   4.054   1.896   7.767
16951TPS    HA418760   4.073   2.003   7.761
16951TPS    CA318761   4.007   1.826   7.655
16951TPS    HA318762   3.990   1.880   7.562
16952TPS    HA218763   5.831   8.049   1.032
16952TPS    CA218764   5.858   7.998   0.940
16952TPS    CA118765   5.883   8.068   0.821
16952TPS     Si18766   5.883   8.254   0.821
16952TPS    CA618767   5.924   7.996   0.707
16952TPS    HH618768   5.939   8.045   0.611
16952TPS    CA518769   5.947   7.857   0.714
16952TPS    HA518770   5.979   7.802   0.627
16952TPS    CA418771   5.924   7.789   0.835
16952TPS    HA418772   5.943   7.682   0.841
16952TPS    CA318773   5.877   7.859   0.947
16952TPS    HA318774   5.860   7.805   1.040
16953TPS    HA218775   0.313   8.050   1.866
16953TPS    CA218776   0.340   7.999   1.774
16953TPS    CA118777   0.365   8.069   1.655
16953TPS     Si18778   0.365   8.255   1.655
16953TPS    CA618779   0.406   7.997   1.541
16953TPS    HH618780   0.421   8.046   1.445
16953TPS    CA518781   0.429   7.858   1.548
16953TPS    HA518782   0.461   7.803   1.461
16953TPS    CA418783   0.406   7.790   1.669
16953TPS    HA418784   0.425   7.683   1.675
16953TPS    CA318785   0.359   7.860   1.781
16953TPS    HA318786   0.342   7.806   1.874
16954TPS    HA218787   4.913   8.133   5.464
16954TPS    CA218788   4.940   8.082   5.372
16954TPS    CA118789   4.965   8.152   5.253
16954TPS     Si18790   4.965   8.338   5.253
16954TPS    CA618791   5.006   8.080   5.139
16954TPS    HH618792   5.021   8.129   5.043
16954TPS    CA518793   5.029   7.941   5.146
16954TPS    HA518794   5.061   7.886   5.059
16954TPS    CA418795   5.006   7.873   5.267
16954TPS    HA418796   5.025   7.766   5.273
16954TPS    CA318797   4.959   7.943   5.379
16954TPS    HA318798   4.942   7.889   5.472
16955TPS    HA218799   0.919   1.349   2.533
16955TPS    CA218800   0.833   1.400   2.575
16955TPS    CA118801   0.720   1.330   2.621
16955TPS     Si18802   0.720   1.144   2.621
16955TPS    CA618803   0.615   1.402   2.681
16955TPS    HH618804   0.523   1.353   2.713
16955TPS    CA518805   0.626   1.541   2.702
16955TPS    HA518806   0.545   1.596   2.749
16955TPS    CA418807   0.741   1.609   2.659
16955TPS    HA418808   0.750   1.716   2.677
16955TPS    CA318809   0.843   1.539   2.593
16955TPS    HA318810   0.931   1.593   2.560
16956TPS    HA218811   0.188   1.522   6.019
16956TPS    CA218812   0.215   1.573   6.111
16956TPS    CA118813   0.240   1.503   6.230
16956TPS     Si18814   0.240   1.317   6.230
16956TPS    CA618815   0.281   1.575   6.344
16956TPS    HH618816   0.296   1.526   6.440
16956TPS    CA518817   0.304   1.714   6.337
16956TPS    HA518818   0.336   1.769   6.424
16956TPS    CA418819   0.281   1.782   6.216
16956TPS    HA418820   0.300   1.889   6.210
16956TPS    CA318821   0.234   1.712   6.104
16956TPS    HA318822   0.217   1.766   6.011
16957TPS    HA218823   4.346   1.490   8.297
16957TPS    CA218824   4.373   1.541   8.389
16957TPS    CA118825   4.398   1.471   8.508
16957TPS     Si18826   4.398   1.285   8.508
16957TPS    CA618827   4.439   1.543   8.622
16957TPS    HH618828   4.454   1.494   8.718
16957TPS    CA518829   4.462   1.682   8.615
16957TPS    HA518830   4.494   1.737   8.702
16957TPS    CA418831   4.439   1.750   8.494
16957TPS    HA418832   4.458   1.857   8.488
16957TPS    CA318833   4.392   1.680   8.382
16957TPS    HA318834   4.375   1.734   8.289
16958TPS    HA218835   3.255   8.026   8.690
16958TPS    CA218836   3.282   7.975   8.598
16958TPS    CA118837   3.307   8.045   8.479
16958TPS     Si18838   3.307   8.231   8.479
16958TPS    CA618839   3.348   7.973   8.365
16958TPS    HH618840   3.363   8.022   8.269
16958TPS    CA518841   3.371   7.834   8.372
16958TPS    HA518842   3.403   7.779   8.285
16958TPS    CA418843   3.348   7.766   8.493
16958TPS    HA418844   3.367   7.659   8.499
16958TPS    CA318845   3.301   7.836   8.605
16958TPS    HA318846   3.284   7.782   8.698
16959TPS    HA218847   0.019   1.624   6.542
16959TPS    CA218848   0.046   1.675   6.634
16959TPS    CA118849   0.071   1.605   6.753
16959TPS     Si18850   0.071   1.419   6.753
16959TPS    CA618851   0.112   1.677   6.867
16959TPS    HH618852   0.127   1.628   6.963
16959TPS    CA518853   0.135   1.816   6.860
16959TPS    HA518854   0.167   1.871   6.947
16959TPS    CA418855   0.112   1.884   6.739
16959TPS    HA418856   0.131   1.991   6.733
16959TPS    CA318857   0.065   1.814   6.627
16959TPS    HA318858   0.048   1.868   6.534
16960TPS    HA218859   8.828   8.008   2.291
16960TPS    CA218860   8.855   7.957   2.199
16960TPS    CA118861   8.880   8.027   2.080
16960TPS     Si18862   8.880   8.213   2.080
16960TPS    CA618863   8.921   7.955   1.966
16960TPS    HH618864   8.936   8.004   1.870
16960TPS    CA518865   8.944   7.816   1.973
16960TPS    HA518866   8.976   7.761   1.886
16960TPS    CA418867   8.921   7.748   2.094
16960TPS    HA418868   8.940   7.641   2.100
16960TPS    CA318869   8.874   7.818   2.206
16960TPS    HA318870   8.857   7.764   2.299
16961TPS    HA218871   6.681   8.182   3.560
16961TPS    CA218872   6.737   8.131   3.482
16961TPS    CA118873   6.802   8.201   3.379
16961TPS     Si18874   6.802   8.387   3.379
16961TPS    CA618875   6.880   8.129   3.286
16961TPS    HH618876   6.927   8.178   3.201
16961TPS    CA518877   6.898   7.990   3.301
16961TPS    HA518878   6.959   7.935   3.229
16961TPS    CA418879   6.836   7.922   3.406
16961TPS    HA418880   6.852   7.815   3.418
16961TPS    CA318881   6.753   7.992   3.495
16961TPS    HA318882   6.705   7.938   3.577
16962TPS    HA218883   0.187   8.079   1.615
16962TPS    CA218884   0.214   8.028   1.523
16962TPS    CA118885   0.239   8.098   1.404
16962TPS     Si18886   0.239   8.284   1.404
16962TPS    CA618887   0.280   8.026   1.290
16962TPS    HH618888   0.295   8.075   1.194
16962TPS    CA518889   0.303   7.887   1.297
16962TPS    HA518890   0.335   7.832   1.210
16962TPS    CA418891   0.280   7.819   1.418
16962TPS    HA418892   0.299   7.712   1.424
16962TPS    CA318893   0.233   7.889   1.530
16962TPS    HA318894   0.216   7.835   1.623
16963TPS    HA218895   2.680   1.472   7.987
16963TPS    CA218896   2.707   1.523   8.079
16963TPS    CA118897   2.732   1.453   8.198
16963TPS     Si18898   2.732   1.267   8.198
16963TPS    CA618899   2.773   1.525   8.312
16963TPS    HH618900   2.788   1.476   8.408
16963TPS    CA518901   2.796   1.664   8.305
16963TPS    HA518902   2.828   1.719   8.392
16963TPS    CA418903   2.773   1.732   8.184
16963TPS    HA418904   2.792   1.839   8.178
16963TPS    CA318905   2.726   1.662   8.072
16963TPS    HA318906   2.709   1.716   7.979
16964TPS    HA218907   7.191   8.186   4.503
16964TPS    CA218908   7.218   8.135   4.411
16964TPS    CA118909   7.243   8.205   4.292
16964TPS     Si18910   7.243   8.391   4.292
16964TPS    CA618911   7.284   8.133   4.178
16964TPS    HH618912   7.299   8.182   4.082
16964TPS    CA518913   7.307   7.994   4.185
16964TPS    HA518914   7.339   7.939   4.098
16964TPS    CA418915   7.284   7.926   4.306
16964TPS    HA418916   7.303   7.819   4.312
16964TPS    CA318917   7.237   7.996   4.418
16964TPS    HA318918   7.220   7.942   4.511
16965TPS    HA218919   4.544   8.132   8.397
16965TPS    CA218920   4.571   8.081   8.305
16965TPS    CA118921   4.596   8.151   8.186
16965TPS     Si18922   4.596   8.337   8.186
16965TPS    CA618923   4.637   8.079   8.072
16965TPS    HH618924   4.652   8.128   7.976
16965TPS    CA518925   4.660   7.940   8.079
16965TPS    HA518926   4.692   7.885   7.992
16965TPS    CA418927   4.637   7.872   8.200
16965TPS    HA418928   4.656   7.765   8.206
16965TPS    CA318929   4.590   7.942   8.312
16965TPS    HA318930   4.573   7.888   8.405
16966TPS    HA218931   3.837   8.087   9.392
16966TPS    CA218932   3.864   8.036   9.300
16966TPS    CA118933   3.889   8.106   9.181
16966TPS     Si18934   3.889   8.292   9.181
16966TPS    CA618935   3.930   8.034   9.067
16966TPS    HH618936   3.945   8.083   8.971
16966TPS    CA518937   3.953   7.895   9.074
16966TPS    HA518938   3.985   7.840   8.987
16966TPS    CA418939   3.930   7.827   9.195
16966TPS    HA418940   3.949   7.720   9.201
16966TPS    CA318941   3.883   7.897   9.307
16966TPS    HA318942   3.866   7.843   9.400
16967TPS    HA218943   4.278   8.037   5.597
16967TPS    CA218944   4.305   7.986   5.505
16967TPS    CA118945   4.330   8.056   5.386
16967TPS     Si18946   4.330   8.242   5.386
16967TPS    CA618947   4.371   7.984   5.272
16967TPS    HH618948   4.386   8.033   5.176
16967TPS    CA518949   4.394   7.845   5.279
16967TPS    HA518950   4.426   7.790   5.192
16967TPS    CA418951   4.371   7.777   5.400
16967TPS    HA418952   4.390   7.670   5.406
16967TPS    CA318953   4.324   7.847   5.512
16967TPS    HA318954   4.307   7.793   5.605
16968TPS    HA218955   3.545   1.363   9.114
16968TPS    CA218956   3.572   1.414   9.206
16968TPS    CA118957   3.597   1.344   9.325
16968TPS     Si18958   3.597   1.158   9.325
16968TPS    CA618959   3.638   1.416   9.439
16968TPS    HH618960   3.653   1.367   9.535
16968TPS    CA518961   3.661   1.555   9.432
16968TPS    HA518962   3.693   1.610   9.519
16968TPS    CA418963   3.638   1.623   9.311
16968TPS    HA418964   3.657   1.730   9.305
16968TPS    CA318965   3.591   1.553   9.199
16968TPS    HA318966   3.574   1.607   9.106
16969TPS    HA218967   6.129   7.996   7.164
16969TPS    CA218968   6.090   7.945   7.077
16969TPS    CA118969   6.033   8.015   6.969
16969TPS     Si18970   6.033   8.201   6.969
16969TPS    CA618971   5.991   7.943   6.855
16969TPS    HH618972   5.941   7.992   6.772
16969TPS    CA518973   6.013   7.804   6.847
16969TPS    HA518974   5.982   7.749   6.758
16969TPS    CA418975   6.073   7.736   6.953
16969TPS    HA418976   6.092   7.629   6.946
16969TPS    CA318977   6.109   7.806   7.069
16969TPS    HA318978   6.156   7.752   7.152
16970TPS    HA218979   3.795   1.463   7.776
16970TPS    CA218980   3.834   1.514   7.689
16970TPS    CA118981   3.891   1.444   7.581
16970TPS     Si18982   3.891   1.258   7.581
16970TPS    CA618983   3.933   1.516   7.467
16970TPS    HH618984   3.983   1.467   7.384
16970TPS    CA518985   3.911   1.655   7.459
16970TPS    HA518986   3.942   1.710   7.370
16970TPS    CA418987   3.851   1.723   7.565
16970TPS    HA418988   3.832   1.830   7.558
16970TPS    CA318989   3.815   1.653   7.681
16970TPS    HA318990   3.768   1.707   7.764
16971TPS    HA218991   6.487   1.376   6.480
16971TPS    CA218992   6.514   1.427   6.572
16971TPS    CA118993   6.539   1.357   6.691
16971TPS     Si18994   6.539   1.171   6.691
16971TPS    CA618995   6.580   1.429   6.805
16971TPS    HH618996   6.595   1.380   6.901
16971TPS    CA518997   6.603   1.568   6.798
16971TPS    HA518998   6.635   1.623   6.885
16971TPS    CA418999   6.580   1.636   6.677
16971TPS    HA419000   6.599   1.743   6.671
16971TPS    CA319001   6.533   1.566   6.565
16971TPS    HA319002   6.516   1.620   6.472
16972TPS    HA219003   6.161   1.538   4.115
16972TPS    CA219004   6.188   1.589   4.207
16972TPS    CA119005   6.213   1.519   4.326
16972TPS     Si19006   6.213   1.333   4.326
16972TPS    CA619007   6.254   1.591   4.440
16972TPS    HH619008   6.269   1.542   4.536
16972TPS    CA519009   6.277   1.730   4.433
16972TPS    HA519010   6.309   1.785   4.520
16972TPS    CA419011   6.254   1.798   4.312
16972TPS    HA419012   6.273   1.905   4.306
16972TPS    CA319013   6.207   1.728   4.200
16972TPS    HA319014   6.190   1.782   4.107
16973TPS    HA219015   4.061   8.035   9.014
16973TPS    CA219016   4.088   7.984   8.922
16973TPS    CA119017   4.113   8.054   8.803
16973TPS     Si19018   4.113   8.240   8.803
16973TPS    CA619019   4.154   7.982   8.689
16973TPS    HH619020   4.169   8.031   8.593
16973TPS    CA519021   4.177   7.843   8.696
16973TPS    HA519022   4.209   7.788   8.609
16973TPS    CA419023   4.154   7.775   8.817
16973TPS    HA419024   4.173   7.668   8.823
16973TPS    CA319025   4.107   7.845   8.929
16973TPS    HA319026   4.090   7.791   9.022
16974TPS    HA219027   7.258   8.068   7.232
16974TPS    CA219028   7.285   8.017   7.140
16974TPS    CA119029   7.310   8.087   7.021
16974TPS     Si19030   7.310   8.273   7.021
16974TPS    CA619031   7.351   8.015   6.907
16974TPS    HH619032   7.366   8.064   6.811
16974TPS    CA519033   7.374   7.876   6.914
16974TPS    HA519034   7.406   7.821   6.827
16974TPS    CA419035   7.351   7.808   7.035
16974TPS    HA419036   7.370   7.701   7.041
16974TPS    CA319037   7.304   7.878   7.147
16974TPS    HA319038   7.287   7.824   7.240
16975TPS    HA219039   3.616   8.172   2.746
16975TPS    CA219040   3.643   8.121   2.654
16975TPS    CA119041   3.668   8.191   2.535
16975TPS     Si19042   3.668   8.377   2.535
16975TPS    CA619043   3.709   8.119   2.421
16975TPS    HH619044   3.724   8.168   2.325
16975TPS    CA519045   3.732   7.980   2.428
16975TPS    HA519046   3.764   7.925   2.341
16975TPS    CA419047   3.709   7.912   2.549
16975TPS    HA419048   3.728   7.805   2.555
16975TPS    CA319049   3.662   7.982   2.661
16975TPS    HA319050   3.645   7.928   2.754
16976TPS    HA219051   0.959   1.395   7.311
16976TPS    CA219052   0.986   1.446   7.403
16976TPS    CA119053   1.011   1.376   7.522
16976TPS     Si19054   1.011   1.190   7.522
16976TPS    CA619055   1.052   1.448   7.636
16976TPS    HH619056   1.067   1.399   7.732
16976TPS    CA519057   1.075   1.587   7.629
16976TPS    HA519058   1.107   1.642   7.716
16976TPS    CA419059   1.052   1.655   7.508
16976TPS    HA419060   1.071   1.762   7.502
16976TPS    CA319061   1.005   1.585   7.396
16976TPS    HA319062   0.988   1.639   7.303
16977TPS    HA219063   5.170   8.182   5.312
16977TPS    CA219064   5.197   8.131   5.220
16977TPS    CA119065   5.222   8.201   5.101
16977TPS     Si19066   5.222   8.387   5.101
16977TPS    CA619067   5.263   8.129   4.987
16977TPS    HH619068   5.278   8.178   4.891
16977TPS    CA519069   5.286   7.990   4.994
16977TPS    HA519070   5.318   7.935   4.907
16977TPS    CA419071   5.263   7.922   5.115
16977TPS    HA419072   5.282   7.815   5.121
16977TPS    CA319073   5.216   7.992   5.227
16977TPS    HA319074   5.199   7.938   5.320
16978TPS    HA219075   8.559   1.512   5.144
16978TPS    CA219076   8.586   1.563   5.236
16978TPS    CA119077   8.611   1.493   5.355
16978TPS     Si19078   8.611   1.307   5.355
16978TPS    CA619079   8.652   1.565   5.469
16978TPS    HH619080   8.667   1.516   5.565
16978TPS    CA519081   8.675   1.704   5.462
16978TPS    HA519082   8.707   1.759   5.549
16978TPS    CA419083   8.652   1.772   5.341
16978TPS    HA419084   8.671   1.879   5.335
16978TPS    CA319085   8.605   1.702   5.229
16978TPS    HA319086   8.588   1.756   5.136
16979TPS    HA219087   6.154   8.269   3.543
16979TPS    CA219088   6.181   8.218   3.451
16979TPS    CA119089   6.206   8.288   3.332
16979TPS     Si19090   6.206   8.474   3.332
16979TPS    CA619091   6.247   8.216   3.218
16979TPS    HH619092   6.262   8.265   3.122
16979TPS    CA519093   6.270   8.077   3.225
16979TPS    HA519094   6.302   8.022   3.138
16979TPS    CA419095   6.247   8.009   3.346
16979TPS    HA419096   6.266   7.902   3.352
16979TPS    CA319097   6.200   8.079   3.458
16979TPS    HA319098   6.183   8.025   3.551
16980TPS    HA219099   8.971   8.027   1.465
16980TPS    CA219100   8.998   7.976   1.373
16980TPS    CA119101   9.023   8.046   1.254
16980TPS     Si19102   9.023   8.232   1.254
16980TPS    CA619103   9.064   7.974   1.140
16980TPS    HH619104   9.079   8.023   1.044
16980TPS    CA519105   9.087   7.835   1.147
16980TPS    HA519106   9.119   7.780   1.060
16980TPS    CA419107   9.064   7.767   1.268
16980TPS    HA419108   9.083   7.660   1.274
16980TPS    CA319109   9.017   7.837   1.380
16980TPS    HA319110   9.000   7.783   1.473
16981TPS    HA219111   4.657   7.996   0.651
16981TPS    CA219112   4.684   7.945   0.559
16981TPS    CA119113   4.709   8.015   0.440
16981TPS     Si19114   4.709   8.201   0.440
16981TPS    CA619115   4.750   7.943   0.326
16981TPS    HH619116   4.765   7.992   0.230
16981TPS    CA519117   4.773   7.804   0.333
16981TPS    HA519118   4.805   7.749   0.246
16981TPS    CA419119   4.750   7.736   0.454
16981TPS    HA419120   4.769   7.629   0.460
16981TPS    CA319121   4.703   7.806   0.566
16981TPS    HA319122   4.686   7.752   0.659
16982TPS    HA219123   6.474   1.375   8.436
16982TPS    CA219124   6.501   1.426   8.528
16982TPS    CA119125   6.526   1.356   8.647
16982TPS     Si19126   6.526   1.170   8.647
16982TPS    CA619127   6.567   1.428   8.761
16982TPS    HH619128   6.582   1.379   8.857
16982TPS    CA519129   6.590   1.567   8.754
16982TPS    HA519130   6.622   1.622   8.841
16982TPS    CA419131   6.567   1.635   8.633
16982TPS    HA419132   6.586   1.742   8.627
16982TPS    CA319133   6.520   1.565   8.521
16982TPS    HA319134   6.503   1.619   8.428
16983TPS    HA219135   5.466   8.091   4.129
16983TPS    CA219136   5.493   8.040   4.037
16983TPS    CA119137   5.518   8.110   3.918
16983TPS     Si19138   5.518   8.296   3.918
16983TPS    CA619139   5.559   8.038   3.804
16983TPS    HH619140   5.574   8.087   3.708
16983TPS    CA519141   5.582   7.899   3.811
16983TPS    HA519142   5.614   7.844   3.724
16983TPS    CA419143   5.559   7.831   3.932
16983TPS    HA419144   5.578   7.724   3.938
16983TPS    CA319145   5.512   7.901   4.044
16983TPS    HA319146   5.495   7.847   4.137
16984TPS    HA219147   9.008   8.127   8.488
16984TPS    CA219148   9.035   8.076   8.396
16984TPS    CA119149   9.060   8.146   8.277
16984TPS     Si19150   9.060   8.332   8.277
16984TPS    CA619151   9.101   8.074   8.163
16984TPS    HH619152   9.116   8.123   8.067
16984TPS    CA519153   9.124   7.935   8.170
16984TPS    HA519154   9.156   7.880   8.083
16984TPS    CA419155   9.101   7.867   8.291
16984TPS    HA419156   9.120   7.760   8.297
16984TPS    CA319157   9.054   7.937   8.403
16984TPS    HA319158   9.037   7.883   8.496
16985TPS    HA219159   1.309   1.460   1.711
16985TPS    CA219160   1.243   1.511   1.779
16985TPS    CA119161   1.152   1.441   1.861
16985TPS     Si19162   1.152   1.255   1.861
16985TPS    CA619163   1.074   1.513   1.954
16985TPS    HH619164   0.999   1.464   2.015
16985TPS    CA519165   1.091   1.652   1.969
16985TPS    HA519166   1.032   1.707   2.041
16985TPS    CA419167   1.184   1.720   1.890
16985TPS    HA419168   1.199   1.827   1.903
16985TPS    CA319169   1.258   1.650   1.793
16985TPS    HA319170   1.330   1.704   1.731
16986TPS    HA219171   2.757   1.460   6.239
16986TPS    CA219172   2.784   1.511   6.331
16986TPS    CA119173   2.809   1.441   6.450
16986TPS     Si19174   2.809   1.255   6.450
16986TPS    CA619175   2.850   1.513   6.564
16986TPS    HH619176   2.865   1.464   6.660
16986TPS    CA519177   2.873   1.652   6.557
16986TPS    HA519178   2.905   1.707   6.644
16986TPS    CA419179   2.850   1.720   6.436
16986TPS    HA419180   2.869   1.827   6.430
16986TPS    CA319181   2.803   1.650   6.324
16986TPS    HA319182   2.786   1.704   6.231
16987TPS    HA219183   9.335   1.342  -0.094
16987TPS    CA219184   9.362   1.393  -0.002
16987TPS    CA119185   9.387   1.323   0.117
16987TPS     Si19186   9.387   1.137   0.117
16987TPS    CA619187   9.428   1.395   0.231
16987TPS    HH619188   9.443   1.346   0.327
16987TPS    CA519189   9.451   1.534   0.224
16987TPS    HA519190   9.483   1.589   0.311
16987TPS    CA419191   9.428   1.602   0.103
16987TPS    HA419192   9.447   1.709   0.097
16987TPS    CA319193   9.381   1.532  -0.009
16987TPS    HA319194   9.364   1.586  -0.102
16988TPS    HA219195   8.442   1.627   4.568
16988TPS    CA219196   8.376   1.678   4.636
16988TPS    CA119197   8.285   1.608   4.718
16988TPS     Si19198   8.285   1.422   4.718
16988TPS    CA619199   8.207   1.680   4.811
16988TPS    HH619200   8.132   1.631   4.872
16988TPS    CA519201   8.224   1.819   4.826
16988TPS    HA519202   8.165   1.874   4.898
16988TPS    CA419203   8.317   1.887   4.747
16988TPS    HA419204   8.332   1.994   4.760
16988TPS    CA319205   8.391   1.817   4.650
16988TPS    HA319206   8.463   1.871   4.588
16989TPS    HA219207   9.454   1.592   1.879
16989TPS    CA219208   9.481   1.643   1.971
16989TPS    CA119209   9.506   1.573   2.090
16989TPS     Si19210   9.506   1.387   2.090
16989TPS    CA619211   9.547   1.645   2.204
16989TPS    HH619212   9.562   1.596   2.300
16989TPS    CA519213   9.570   1.784   2.197
16989TPS    HA519214   9.602   1.839   2.284
16989TPS    CA419215   9.547   1.852   2.076
16989TPS    HA419216   9.566   1.959   2.070
16989TPS    CA319217   9.500   1.782   1.964
16989TPS    HA319218   9.483   1.836   1.871
16990TPS    HA219219   2.245   1.555   3.716
16990TPS    CA219220   2.272   1.606   3.808
16990TPS    CA119221   2.297   1.536   3.927
16990TPS     Si19222   2.297   1.350   3.927
16990TPS    CA619223   2.338   1.608   4.041
16990TPS    HH619224   2.353   1.559   4.137
16990TPS    CA519225   2.361   1.747   4.034
16990TPS    HA519226   2.393   1.802   4.121
16990TPS    CA419227   2.338   1.815   3.913
16990TPS    HA419228   2.357   1.922   3.907
16990TPS    CA319229   2.291   1.745   3.801
16990TPS    HA319230   2.274   1.799   3.708
16991TPS    HA219231   2.303   8.122   5.991
16991TPS    CA219232   2.330   8.071   5.899
16991TPS    CA119233   2.355   8.141   5.780
16991TPS     Si19234   2.355   8.327   5.780
16991TPS    CA619235   2.396   8.069   5.666
16991TPS    HH619236   2.411   8.118   5.570
16991TPS    CA519237   2.419   7.930   5.673
16991TPS    HA519238   2.451   7.875   5.586
16991TPS    CA419239   2.396   7.862   5.794
16991TPS    HA419240   2.415   7.755   5.800
16991TPS    CA319241   2.349   7.932   5.906
16991TPS    HA319242   2.332   7.878   5.999
16992TPS    HA219243   9.366   8.056   3.477
16992TPS    CA219244   9.393   8.005   3.385
16992TPS    CA119245   9.418   8.075   3.266
16992TPS     Si19246   9.418   8.261   3.266
16992TPS    CA619247   9.459   8.003   3.152
16992TPS    HH619248   9.474   8.052   3.056
16992TPS    CA519249   9.482   7.864   3.159
16992TPS    HA519250   9.514   7.809   3.072
16992TPS    CA419251   9.459   7.796   3.280
16992TPS    HA419252   9.478   7.689   3.286
16992TPS    CA319253   9.412   7.866   3.392
16992TPS    HA319254   9.395   7.812   3.485
16993TPS    HA219255   8.458   1.536   3.768
16993TPS    CA219256   8.485   1.587   3.860
16993TPS    CA119257   8.510   1.517   3.979
16993TPS     Si19258   8.510   1.331   3.979
16993TPS    CA619259   8.551   1.589   4.093
16993TPS    HH619260   8.566   1.540   4.189
16993TPS    CA519261   8.574   1.728   4.086
16993TPS    HA519262   8.606   1.783   4.173
16993TPS    CA419263   8.551   1.796   3.965
16993TPS    HA419264   8.570   1.903   3.959
16993TPS    CA319265   8.504   1.726   3.853
16993TPS    HA319266   8.487   1.780   3.760
16994TPS    HA219267   4.826   1.557   8.954
16994TPS    CA219268   4.853   1.608   9.046
16994TPS    CA119269   4.878   1.538   9.165
16994TPS     Si19270   4.878   1.352   9.165
16994TPS    CA619271   4.919   1.610   9.279
16994TPS    HH619272   4.934   1.561   9.375
16994TPS    CA519273   4.942   1.749   9.272
16994TPS    HA519274   4.974   1.804   9.359
16994TPS    CA419275   4.919   1.817   9.151
16994TPS    HA419276   4.938   1.924   9.145
16994TPS    CA319277   4.872   1.747   9.039
16994TPS    HA319278   4.855   1.801   8.946
16995TPS    HA219279   5.197   1.556   8.238
16995TPS    CA219280   5.191   1.607   8.333
16995TPS    CA119281   5.174   1.537   8.454
16995TPS     Si19282   5.174   1.351   8.454
16995TPS    CA619283   5.174   1.609   8.575
16995TPS    HH619284   5.155   1.560   8.670
16995TPS    CA519285   5.197   1.748   8.576
16995TPS    HA519286   5.198   1.803   8.669
16995TPS    CA419287   5.217   1.816   8.455
16995TPS    HA419288   5.237   1.923   8.456
16995TPS    CA319289   5.211   1.746   8.334
16995TPS    HA319290   5.227   1.800   8.241
16996TPS    HA219291   2.986   1.058   3.325
16996TPS    CA219292   2.959   1.109   3.233
16996TPS    CA119293   2.934   1.039   3.114
16996TPS     Si19294   2.934   0.853   3.114
16996TPS    CA619295   2.893   1.111   3.000
16996TPS    HH619296   2.878   1.062   2.904
16996TPS    CA519297   2.870   1.250   3.007
16996TPS    HA519298   2.838   1.305   2.920
16996TPS    CA419299   2.893   1.318   3.128
16996TPS    HA419300   2.874   1.425   3.134
16996TPS    CA319301   2.940   1.248   3.240
16996TPS    HA319302   2.957   1.302   3.333
16997TPS    HA219303   3.335   8.340   2.148
16997TPS    CA219304   3.362   8.289   2.056
16997TPS    CA119305   3.387   8.359   1.937
16997TPS     Si19306   3.387   8.545   1.937
16997TPS    CA619307   3.428   8.287   1.823
16997TPS    HH619308   3.443   8.336   1.727
16997TPS    CA519309   3.451   8.148   1.830
16997TPS    HA519310   3.483   8.093   1.743
16997TPS    CA419311   3.428   8.080   1.951
16997TPS    HA419312   3.447   7.973   1.957
16997TPS    CA319313   3.381   8.150   2.063
16997TPS    HA319314   3.364   8.096   2.156
16998TPS    HA219315   8.395   1.494   1.568
16998TPS    CA219316   8.422   1.545   1.660
16998TPS    CA119317   8.447   1.475   1.779
16998TPS     Si19318   8.447   1.289   1.779
16998TPS    CA619319   8.488   1.547   1.893
16998TPS    HH619320   8.503   1.498   1.989
16998TPS    CA519321   8.511   1.686   1.886
16998TPS    HA519322   8.543   1.741   1.973
16998TPS    CA419323   8.488   1.754   1.765
16998TPS    HA419324   8.507   1.861   1.759
16998TPS    CA319325   8.441   1.684   1.653
16998TPS    HA319326   8.424   1.738   1.560
16999TPS    HA219327   9.269   7.983   1.376
16999TPS    CA219328   9.296   7.932   1.284
16999TPS    CA119329   9.321   8.002   1.165
16999TPS     Si19330   9.321   8.188   1.165
16999TPS    CA619331   9.362   7.930   1.051
16999TPS    HH619332   9.377   7.979   0.955
16999TPS    CA519333   9.385   7.791   1.058
16999TPS    HA519334   9.417   7.736   0.971
16999TPS    CA419335   9.362   7.723   1.179
16999TPS    HA419336   9.381   7.616   1.185
16999TPS    CA319337   9.315   7.793   1.291
16999TPS    HA319338   9.298   7.739   1.384
17000TPS    HA219339   2.265   1.450   2.189
17000TPS    CA219340   2.292   1.501   2.281
17000TPS    CA119341   2.317   1.431   2.400
17000TPS     Si19342   2.317   1.245   2.400
17000TPS    CA619343   2.358   1.503   2.514
17000TPS    HH619344   2.373   1.454   2.610
17000TPS    CA519345   2.381   1.642   2.507
17000TPS    HA519346   2.413   1.697   2.594
17000TPS    CA419347   2.358   1.710   2.386
17000TPS    HA419348   2.377   1.817   2.380
17000TPS    CA319349   2.311   1.640   2.274
17000TPS    HA319350   2.294   1.694   2.181
17001TPS    HA219351   0.199   1.517   5.535
17001TPS    CA219352   0.226   1.568   5.627
17001TPS    CA119353   0.251   1.498   5.746
17001TPS     Si19354   0.251   1.312   5.746
17001TPS    CA619355   0.292   1.570   5.860
17001TPS    HH619356   0.307   1.521   5.956
17001TPS    CA519357   0.315   1.709   5.853
17001TPS    HA519358   0.347   1.764   5.940
17001TPS    CA419359   0.292   1.777   5.732
17001TPS    HA419360   0.311   1.884   5.726
17001TPS    CA319361   0.245   1.707   5.620
17001TPS    HA319362   0.228   1.761   5.527
17002TPS    HA219363   3.026   1.365   2.781
17002TPS    CA219364   3.053   1.416   2.873
17002TPS    CA119365   3.078   1.346   2.992
17002TPS     Si19366   3.078   1.160   2.992
17002TPS    CA619367   3.119   1.418   3.106
17002TPS    HH619368   3.134   1.369   3.202
17002TPS    CA519369   3.142   1.557   3.099
17002TPS    HA519370   3.174   1.612   3.186
17002TPS    CA419371   3.119   1.625   2.978
17002TPS    HA419372   3.138   1.732   2.972
17002TPS    CA319373   3.072   1.555   2.866
17002TPS    HA319374   3.055   1.609   2.773
17003TPS    HA219375   1.674   8.133   7.945
17003TPS    CA219376   1.701   8.082   7.853
17003TPS    CA119377   1.726   8.152   7.734
17003TPS     Si19378   1.726   8.338   7.734
17003TPS    CA619379   1.767   8.080   7.620
17003TPS    HH619380   1.782   8.129   7.524
17003TPS    CA519381   1.790   7.941   7.627
17003TPS    HA519382   1.822   7.886   7.540
17003TPS    CA419383   1.767   7.873   7.748
17003TPS    HA419384   1.786   7.766   7.754
17003TPS    CA319385   1.720   7.943   7.860
17003TPS    HA319386   1.703   7.889   7.953
17004TPS    HA219387   2.135   8.149   6.585
17004TPS    CA219388   2.162   8.098   6.493
17004TPS    CA119389   2.187   8.168   6.374
17004TPS     Si19390   2.187   8.354   6.374
17004TPS    CA619391   2.228   8.096   6.260
17004TPS    HH619392   2.243   8.145   6.164
17004TPS    CA519393   2.251   7.957   6.267
17004TPS    HA519394   2.283   7.902   6.180
17004TPS    CA419395   2.228   7.889   6.388
17004TPS    HA419396   2.247   7.782   6.394
17004TPS    CA319397   2.181   7.959   6.500
17004TPS    HA319398   2.164   7.905   6.593
17005TPS    HA219399   1.534   1.527   0.152
17005TPS    CA219400   1.561   1.578   0.244
17005TPS    CA119401   1.586   1.508   0.363
17005TPS     Si19402   1.586   1.322   0.363
17005TPS    CA619403   1.627   1.580   0.477
17005TPS    HH619404   1.642   1.531   0.573
17005TPS    CA519405   1.650   1.719   0.470
17005TPS    HA519406   1.682   1.774   0.557
17005TPS    CA419407   1.627   1.787   0.349
17005TPS    HA419408   1.646   1.894   0.343
17005TPS    CA319409   1.580   1.717   0.237
17005TPS    HA319410   1.563   1.771   0.144
17006TPS    HA219411   2.074   1.613   7.718
17006TPS    CA219412   2.101   1.664   7.810
17006TPS    CA119413   2.126   1.594   7.929
17006TPS     Si19414   2.126   1.408   7.929
17006TPS    CA619415   2.167   1.666   8.043
17006TPS    HH619416   2.182   1.617   8.139
17006TPS    CA519417   2.190   1.805   8.036
17006TPS    HA519418   2.222   1.860   8.123
17006TPS    CA419419   2.167   1.873   7.915
17006TPS    HA419420   2.186   1.980   7.909
17006TPS    CA319421   2.120   1.803   7.803
17006TPS    HA319422   2.103   1.857   7.710
17007TPS    HA219423   8.867   8.129   2.987
17007TPS    CA219424   8.894   8.078   2.895
17007TPS    CA119425   8.919   8.148   2.776
17007TPS     Si19426   8.919   8.334   2.776
17007TPS    CA619427   8.960   8.076   2.662
17007TPS    HH619428   8.975   8.125   2.566
17007TPS    CA519429   8.983   7.937   2.669
17007TPS    HA519430   9.015   7.882   2.582
17007TPS    CA419431   8.960   7.869   2.790
17007TPS    HA419432   8.979   7.762   2.796
17007TPS    CA319433   8.913   7.939   2.902
17007TPS    HA319434   8.896   7.885   2.995
17008TPS    HA219435   5.073   1.452   0.287
17008TPS    CA219436   5.100   1.503   0.379
17008TPS    CA119437   5.125   1.433   0.498
17008TPS     Si19438   5.125   1.247   0.498
17008TPS    CA619439   5.166   1.505   0.612
17008TPS    HH619440   5.181   1.456   0.708
17008TPS    CA519441   5.189   1.644   0.605
17008TPS    HA519442   5.221   1.699   0.692
17008TPS    CA419443   5.166   1.712   0.484
17008TPS    HA419444   5.185   1.819   0.478
17008TPS    CA319445   5.119   1.642   0.372
17008TPS    HA319446   5.102   1.696   0.279
17009TPS    HA219447   6.104   8.065   3.117
17009TPS    CA219448   6.131   8.014   3.025
17009TPS    CA119449   6.156   8.084   2.906
17009TPS     Si19450   6.156   8.270   2.906
17009TPS    CA619451   6.197   8.012   2.792
17009TPS    HH619452   6.212   8.061   2.696
17009TPS    CA519453   6.220   7.873   2.799
17009TPS    HA519454   6.252   7.818   2.712
17009TPS    CA419455   6.197   7.805   2.920
17009TPS    HA419456   6.216   7.698   2.926
17009TPS    CA319457   6.150   7.875   3.032
17009TPS    HA319458   6.133   7.821   3.125
17010TPS    HA219459   7.151   8.139   9.393
17010TPS    CA219460   7.178   8.088   9.301
17010TPS    CA119461   7.203   8.158   9.182
17010TPS     Si19462   7.203   8.344   9.182
17010TPS    CA619463   7.244   8.086   9.068
17010TPS    HH619464   7.259   8.135   8.972
17010TPS    CA519465   7.267   7.947   9.075
17010TPS    HA519466   7.299   7.892   8.988
17010TPS    CA419467   7.244   7.879   9.196
17010TPS    HA419468   7.263   7.772   9.202
17010TPS    CA319469   7.197   7.949   9.308
17010TPS    HA319470   7.180   7.895   9.401
17011TPS    HA219471   1.020   8.184   4.256
17011TPS    CA219472   0.981   8.133   4.169
17011TPS    CA119473   0.924   8.203   4.061
17011TPS     Si19474   0.924   8.389   4.061
17011TPS    CA619475   0.882   8.131   3.947
17011TPS    HH619476   0.832   8.180   3.864
17011TPS    CA519477   0.904   7.992   3.939
17011TPS    HA519478   0.873   7.937   3.850
17011TPS    CA419479   0.964   7.924   4.045
17011TPS    HA419480   0.983   7.817   4.038
17011TPS    CA319481   1.000   7.994   4.161
17011TPS    HA319482   1.047   7.940   4.244
17012TPS    HA219483   5.334   1.528   0.443
17012TPS    CA219484   5.361   1.579   0.535
17012TPS    CA119485   5.386   1.509   0.654
17012TPS     Si19486   5.386   1.323   0.654
17012TPS    CA619487   5.427   1.581   0.768
17012TPS    HH619488   5.442   1.532   0.864
17012TPS    CA519489   5.450   1.720   0.761
17012TPS    HA519490   5.482   1.775   0.848
17012TPS    CA419491   5.427   1.788   0.640
17012TPS    HA419492   5.446   1.895   0.634
17012TPS    CA319493   5.380   1.718   0.528
17012TPS    HA319494   5.363   1.772   0.435
17013TPS    HA219495   2.184   1.445  -0.013
17013TPS    CA219496   2.211   1.496   0.079
17013TPS    CA119497   2.236   1.426   0.198
17013TPS     Si19498   2.236   1.240   0.198
17013TPS    CA619499   2.277   1.498   0.312
17013TPS    HH619500   2.292   1.449   0.408
17013TPS    CA519501   2.300   1.637   0.305
17013TPS    HA519502   2.332   1.692   0.392
17013TPS    CA419503   2.277   1.705   0.184
17013TPS    HA419504   2.296   1.812   0.178
17013TPS    CA319505   2.230   1.635   0.072
17013TPS    HA319506   2.213   1.689  -0.021
17014TPS    HA219507   3.322   1.561   8.684
17014TPS    CA219508   3.349   1.612   8.776
17014TPS    CA119509   3.374   1.542   8.895
17014TPS     Si19510   3.374   1.356   8.895
17014TPS    CA619511   3.415   1.614   9.009
17014TPS    HH619512   3.430   1.565   9.105
17014TPS    CA519513   3.438   1.753   9.002
17014TPS    HA519514   3.470   1.808   9.089
17014TPS    CA419515   3.415   1.821   8.881
17014TPS    HA419516   3.434   1.928   8.875
17014TPS    CA319517   3.368   1.751   8.769
17014TPS    HA319518   3.351   1.805   8.676
17015TPS    HA219519   0.982   8.098   1.189
17015TPS    CA219520   1.009   8.047   1.097
17015TPS    CA119521   1.034   8.117   0.978
17015TPS     Si19522   1.034   8.303   0.978
17015TPS    CA619523   1.075   8.045   0.864
17015TPS    HH619524   1.090   8.094   0.768
17015TPS    CA519525   1.098   7.906   0.871
17015TPS    HA519526   1.130   7.851   0.784
17015TPS    CA419527   1.075   7.838   0.992
17015TPS    HA419528   1.094   7.731   0.998
17015TPS    CA319529   1.028   7.908   1.104
17015TPS    HA319530   1.011   7.854   1.197
17016TPS    HA219531   4.632   1.423   0.315
17016TPS    CA219532   4.659   1.474   0.407
17016TPS    CA119533   4.684   1.404   0.526
17016TPS     Si19534   4.684   1.218   0.526
17016TPS    CA619535   4.725   1.476   0.640
17016TPS    HH619536   4.740   1.427   0.736
17016TPS    CA519537   4.748   1.615   0.633
17016TPS    HA519538   4.780   1.670   0.720
17016TPS    CA419539   4.725   1.683   0.512
17016TPS    HA419540   4.744   1.790   0.506
17016TPS    CA319541   4.678   1.613   0.400
17016TPS    HA319542   4.661   1.667   0.307
17017TPS    HA219543   5.525   7.955   8.831
17017TPS    CA219544   5.552   7.904   8.739
17017TPS    CA119545   5.577   7.974   8.620
17017TPS     Si19546   5.577   8.160   8.620
17017TPS    CA619547   5.618   7.902   8.506
17017TPS    HH619548   5.633   7.951   8.410
17017TPS    CA519549   5.641   7.763   8.513
17017TPS    HA519550   5.673   7.708   8.426
17017TPS    CA419551   5.618   7.695   8.634
17017TPS    HA419552   5.637   7.588   8.640
17017TPS    CA319553   5.571   7.765   8.746
17017TPS    HA319554   5.554   7.711   8.839
17018TPS    HA219555   8.636   1.485   4.745
17018TPS    CA219556   8.663   1.536   4.837
17018TPS    CA119557   8.688   1.466   4.956
17018TPS     Si19558   8.688   1.280   4.956
17018TPS    CA619559   8.729   1.538   5.070
17018TPS    HH619560   8.744   1.489   5.166
17018TPS    CA519561   8.752   1.677   5.063
17018TPS    HA519562   8.784   1.732   5.150
17018TPS    CA419563   8.729   1.745   4.942
17018TPS    HA419564   8.748   1.852   4.936
17018TPS    CA319565   8.682   1.675   4.830
17018TPS    HA319566   8.665   1.729   4.737
17019TPS    HA219567   5.545   1.605   0.895
17019TPS    CA219568   5.572   1.656   0.987
17019TPS    CA119569   5.597   1.586   1.106
17019TPS     Si19570   5.597   1.400   1.106
17019TPS    CA619571   5.638   1.658   1.220
17019TPS    HH619572   5.653   1.609   1.316
17019TPS    CA519573   5.661   1.797   1.213
17019TPS    HA519574   5.693   1.852   1.300
17019TPS    CA419575   5.638   1.865   1.092
17019TPS    HA419576   5.657   1.972   1.086
17019TPS    CA319577   5.591   1.795   0.980
17019TPS    HA319578   5.574   1.849   0.887
17020TPS    HA219579   1.283   1.588   0.567
17020TPS    CA219580   1.310   1.639   0.659
17020TPS    CA119581   1.335   1.569   0.778
17020TPS     Si19582   1.335   1.383   0.778
17020TPS    CA619583   1.376   1.641   0.892
17020TPS    HH619584   1.391   1.592   0.988
17020TPS    CA519585   1.399   1.780   0.885
17020TPS    HA519586   1.431   1.835   0.972
17020TPS    CA419587   1.376   1.848   0.764
17020TPS    HA419588   1.395   1.955   0.758
17020TPS    CA319589   1.329   1.778   0.652
17020TPS    HA319590   1.312   1.832   0.559
17021TPS    HA219591  -0.019   1.608   0.701
17021TPS    CA219592   0.008   1.659   0.793
17021TPS    CA119593   0.033   1.589   0.912
17021TPS     Si19594   0.033   1.403   0.912
17021TPS    CA619595   0.074   1.661   1.026
17021TPS    HH619596   0.089   1.612   1.122
17021TPS    CA519597   0.097   1.800   1.019
17021TPS    HA519598   0.129   1.855   1.106
17021TPS    CA419599   0.074   1.868   0.898
17021TPS    HA419600   0.093   1.975   0.892
17021TPS    CA319601   0.027   1.798   0.786
17021TPS    HA319602   0.010   1.852   0.693
17022TPS    HA219603   8.365   8.092   4.349
17022TPS    CA219604   8.359   8.041   4.254
17022TPS    CA119605   8.342   8.111   4.133
17022TPS     Si19606   8.342   8.297   4.133
17022TPS    CA619607   8.342   8.039   4.012
17022TPS    HH619608   8.323   8.088   3.917
17022TPS    CA519609   8.365   7.900   4.011
17022TPS    HA519610   8.366   7.845   3.918
17022TPS    CA419611   8.385   7.832   4.132
17022TPS    HA419612   8.405   7.725   4.131
17022TPS    CA319613   8.379   7.902   4.253
17022TPS    HA319614   8.395   7.848   4.346
17023TPS    HA219615   7.359   8.042   0.506
17023TPS    CA219616   7.386   7.991   0.414
17023TPS    CA119617   7.411   8.061   0.295
17023TPS     Si19618   7.411   8.247   0.295
17023TPS    CA619619   7.452   7.989   0.181
17023TPS    HH619620   7.467   8.038   0.085
17023TPS    CA519621   7.475   7.850   0.188
17023TPS    HA519622   7.507   7.795   0.101
17023TPS    CA419623   7.452   7.782   0.309
17023TPS    HA419624   7.471   7.675   0.315
17023TPS    CA319625   7.405   7.852   0.421
17023TPS    HA319626   7.388   7.798   0.514
17024TPS    HA219627   6.133   8.124   6.301
17024TPS    CA219628   6.160   8.073   6.209
17024TPS    CA119629   6.185   8.143   6.090
17024TPS     Si19630   6.185   8.329   6.090
17024TPS    CA619631   6.226   8.071   5.976
17024TPS    HH619632   6.241   8.120   5.880
17024TPS    CA519633   6.249   7.932   5.983
17024TPS    HA519634   6.281   7.877   5.896
17024TPS    CA419635   6.226   7.864   6.104
17024TPS    HA419636   6.245   7.757   6.110
17024TPS    CA319637   6.179   7.934   6.216
17024TPS    HA319638   6.162   7.880   6.309
17025TPS    HA219639   1.037   1.427   0.078
17025TPS    CA219640   1.064   1.478   0.170
17025TPS    CA119641   1.089   1.408   0.289
17025TPS     Si19642   1.089   1.222   0.289
17025TPS    CA619643   1.130   1.480   0.403
17025TPS    HH619644   1.145   1.431   0.499
17025TPS    CA519645   1.153   1.619   0.396
17025TPS    HA519646   1.185   1.674   0.483
17025TPS    CA419647   1.130   1.687   0.275
17025TPS    HA419648   1.149   1.794   0.269
17025TPS    CA319649   1.083   1.617   0.163
17025TPS    HA319650   1.066   1.671   0.070
17026TPS    HA219651   6.473   8.073   9.787
17026TPS    CA219652   6.500   8.022   9.695
17026TPS    CA119653   6.525   8.092   9.576
17026TPS     Si19654   6.525   8.278   9.576
17026TPS    CA619655   6.566   8.020   9.462
17026TPS    HH619656   6.581   8.069   9.366
17026TPS    CA519657   6.589   7.881   9.469
17026TPS    HA519658   6.621   7.826   9.382
17026TPS    CA419659   6.566   7.813   9.590
17026TPS    HA419660   6.585   7.706   9.596
17026TPS    CA319661   6.519   7.883   9.702
17026TPS    HA319662   6.502   7.829   9.795
17027TPS    HA219663   4.632   1.442   3.927
17027TPS    CA219664   4.659   1.493   4.019
17027TPS    CA119665   4.684   1.423   4.138
17027TPS     Si19666   4.684   1.237   4.138
17027TPS    CA619667   4.725   1.495   4.252
17027TPS    HH619668   4.740   1.446   4.348
17027TPS    CA519669   4.748   1.634   4.245
17027TPS    HA519670   4.780   1.689   4.332
17027TPS    CA419671   4.725   1.702   4.124
17027TPS    HA419672   4.744   1.809   4.118
17027TPS    CA319673   4.678   1.632   4.012
17027TPS    HA319674   4.661   1.686   3.919
17028SL     Si119675   3.718   1.343   6.537
17028SL      O119676   3.718   1.507   6.537
17028SL      H119677   3.718   1.605   6.537
17029SL     Si119678   1.123   1.409   2.669
17029SL      O119679   1.123   1.573   2.669
17029SL      H119680   1.123   1.671   2.669
17030SL     Si119681   4.726   1.343   7.237
17030SL      O119682   4.726   1.507   7.237
17030SL      H119683   4.726   1.605   7.237
17031SL     Si119684   3.552   8.304   1.314
17031SL      O119685   3.552   8.140   1.314
17031SL      H119686   3.552   8.042   1.314
17032SL     Si119687   9.430   8.282   6.976
17032SL      O119688   9.430   8.118   6.976
17032SL      H119689   9.430   8.020   6.976
17033SL     Si119690   7.538   1.289   2.498
17033SL      O119691   7.538   1.453   2.498
17033SL      H119692   7.538   1.551   2.498
17034SL     Si119693   8.515   1.221   8.288
17034SL      O119694   8.515   1.385   8.288
17034SL      H119695   8.515   1.483   8.288
17035SL     Si119696   1.135   1.234   5.049
17035SL      O119697   1.135   1.398   5.049
17035SL      H119698   1.135   1.496   5.049
17036SL     Si119699   3.663   1.308   0.258
17036SL      O119700   3.663   1.472   0.258
17036SL      H119701   3.663   1.570   0.258
17037SL     Si119702   0.499   8.406   5.186
17037SL      O119703   0.499   8.242   5.186
17037SL      H119704   0.499   8.144   5.186
17038SL     Si119705   0.116   1.369   8.023
17038SL      O119706   0.116   1.533   8.023
17038SL      H119707   0.116   1.631   8.023
17039SL     Si119708   9.383   8.420   4.752
17039SL      O119709   9.383   8.256   4.752
17039SL      H119710   9.383   8.158   4.752
17040SL     Si119711   6.343   1.199   5.045
17040SL      O119712   6.343   1.363   5.045
17040SL      H119713   6.343   1.461   5.045
17041SL     Si119714   3.235   1.359   5.766
17041SL      O119715   3.235   1.523   5.766
17041SL      H119716   3.235   1.621   5.766
17042SL     Si119717   0.975   1.243   1.598
17042SL      O119718   0.975   1.407   1.598
17042SL      H119719   0.975   1.505   1.598
17043SL     Si119720   3.193   1.400   9.419
17043SL      O119721   3.193   1.564   9.419
17043SL      H119722   3.193   1.662   9.419
17044SL     Si119723   0.052   1.226   5.527
17044SL      O119724   0.052   1.390   5.527
17044SL      H119725   0.052   1.488   5.527
17045SL     Si119726   0.256   1.286   4.722
17045SL      O119727   0.256   1.450   4.722
17045SL      H119728   0.256   1.548   4.722
17046SL     Si119729   9.327   8.385   3.907
17046SL      O119730   9.327   8.221   3.907
17046SL      H119731   9.327   8.123   3.907
17047SL     Si119732   8.335   8.371   8.604
17047SL      O119733   8.335   8.207   8.604
17047SL      H119734   8.335   8.109   8.604
17048SL     Si119735   2.750   1.096   0.786
17048SL      O119736   2.750   1.260   0.786
17048SL      H119737   2.750   1.358   0.786
17049SL     Si119738   4.401   8.247   4.282
17049SL      O119739   4.401   8.083   4.282
17049SL      H119740   4.401   7.985   4.282
17050SL     Si119741   7.095   8.211   7.792
17050SL      O119742   7.095   8.047   7.792
17050SL      H119743   7.095   7.949   7.792
17051SL     Si119744   6.910   8.342   7.180
17051SL      O119745   6.910   8.178   7.180
17051SL      H119746   6.910   8.080   7.180
17052SL     Si119747   1.959   1.254   8.617
17052SL      O119748   1.959   1.418   8.617
17052SL      H119749   1.959   1.516   8.617
17053SL     Si119750   4.581   1.271   3.309
17053SL      O119751   4.581   1.435   3.309
17053SL      H119752   4.581   1.533   3.309
17054SL     Si119753   8.727   1.324   2.819
17054SL      O119754   8.727   1.488   2.819
17054SL      H119755   8.727   1.586   2.819
17055SL     Si119756   8.283   8.334   8.135
17055SL      O119757   8.283   8.170   8.135
17055SL      H119758   8.283   8.072   8.135
17056SL     Si119759   2.034   1.327   1.722
17056SL      O119760   2.034   1.491   1.722
17056SL      H119761   2.034   1.589   1.722
17057SL     Si119762   9.173   8.385   8.795
17057SL      O119763   9.173   8.221   8.795
17057SL      H119764   9.173   8.123   8.795
17058SL     Si119765   8.041   8.281   2.058
17058SL      O119766   8.041   8.117   2.058
17058SL      H119767   8.041   8.019   2.058
17059SL     Si119768   4.294   8.394   8.985
17059SL      O119769   4.294   8.230   8.985
17059SL      H119770   4.294   8.132   8.985
17060SL     Si119771   2.353   8.201   8.588
17060SL      O119772   2.353   8.037   8.588
17060SL      H119773   2.353   7.939   8.588
17061SL     Si119774   0.763   1.401   8.666
17061SL      O119775   0.763   1.565   8.666
17061SL      H119776   0.763   1.663   8.666
17062SL     Si119777   8.280   8.228   3.615
17062SL      O119778   8.280   8.064   3.615
17062SL      H119779   8.280   7.966   3.615
17063SL     Si119780   1.667   1.222   3.282
17063SL      O119781   1.667   1.386   3.282
17063SL      H119782   1.667   1.484   3.282
17064SL     Si119783   3.730   1.387   3.597
17064SL      O119784   3.730   1.551   3.597
17064SL      H119785   3.730   1.649   3.597
17065SL     Si119786   1.842   8.311   2.589
17065SL      O119787   1.842   8.147   2.589
17065SL      H119788   1.842   8.049   2.589
17066SL     Si119789   5.213   8.348   5.622
17066SL      O119790   5.213   8.184   5.622
17066SL      H119791   5.213   8.086   5.622
17067SL     Si119792   7.533   8.222   3.409
17067SL      O119793   7.533   8.058   3.409
17067SL      H119794   7.533   7.960   3.409
17068SL     Si119795   2.656   8.313   5.805
17068SL      O119796   2.656   8.149   5.805
17068SL      H119797   2.656   8.051   5.805
17069SL     Si119798   9.148   8.385   1.692
17069SL      O119799   9.148   8.221   1.692
17069SL      H119800   9.148   8.123   1.692
17070SL     Si119801   6.269   1.269   8.711
17070SL      O119802   6.269   1.433   8.711
17070SL      H119803   6.269   1.531   8.711
17071SL     Si119804   4.053   8.351   3.640
17071SL      O119805   4.053   8.187   3.640
17071SL      H119806   4.053   8.089   3.640
17072SL     Si119807   7.011   8.198   1.647
17072SL      O119808   7.011   8.034   1.647
17072SL      H119809   7.011   7.936   1.647
17073SL     Si119810   1.070   1.179   5.356
17073SL      O119811   1.070   1.343   5.356
17073SL      H119812   1.070   1.441   5.356
17074SL     Si119813   1.904   8.271   0.005
17074SL      O119814   1.904   8.107   0.005
17074SL      H119815   1.904   8.009   0.005
17075SL     Si119816   4.875   1.368   8.431
17075SL      O119817   4.875   1.532   8.431
17075SL      H119818   4.875   1.630   8.431
17076SL     Si119819   9.160   8.352   5.634
17076SL      O119820   9.160   8.188   5.634
17076SL      H119821   9.160   8.090   5.634
17077SL     Si119822   6.157   8.364   8.692
17077SL      O119823   6.157   8.200   8.692
17077SL      H119824   6.157   8.102   8.692
17078SL     Si119825   1.872   8.322   4.907
17078SL      O119826   1.872   8.158   4.907
17078SL      H119827   1.872   8.060   4.907
17079SL     Si119828   2.971   1.391   5.594
17079SL      O119829   2.971   1.555   5.594
17079SL      H119830   2.971   1.653   5.594
17080SL     Si119831   4.962   8.481   1.124
17080SL      O119832   4.962   8.317   1.124
17080SL      H119833   4.962   8.219   1.124
17081SL     Si119834   0.223   8.200   6.976
17081SL      O119835   0.223   8.036   6.976
17081SL      H119836   0.223   7.938   6.976
17082SL     Si119837   4.066   1.160   1.931
17082SL      O119838   4.066   1.324   1.931
17082SL      H119839   4.066   1.422   1.931
17083SL     Si119840   2.313   8.423   1.760
17083SL      O119841   2.313   8.259   1.760
17083SL      H119842   2.313   8.161   1.760
17084SL     Si119843   0.946   8.283   2.594
17084SL      O119844   0.946   8.119   2.594
17084SL      H119845   0.946   8.021   2.594
17085SL     Si119846   4.668   1.244   2.544
17085SL      O119847   4.668   1.408   2.544
17085SL      H119848   4.668   1.506   2.544
17086SL     Si119849   3.834   1.366   2.901
17086SL      O119850   3.834   1.530   2.901
17086SL      H119851   3.834   1.628   2.901
17087SL     Si119852   7.730   1.360   3.489
17087SL      O119853   7.730   1.524   3.489
17087SL      H119854   7.730   1.622   3.489
17088SL     Si119855   2.014   1.247   8.158
17088SL      O119856   2.014   1.411   8.158
17088SL      H119857   2.014   1.509   8.158
17089SL     Si119858   3.546   1.164   0.849
17089SL      O119859   3.546   1.328   0.849
17089SL      H119860   3.546   1.426   0.849
17090SL     Si119861   3.149   1.377   9.103
17090SL      O119862   3.149   1.541   9.103
17090SL      H119863   3.149   1.639   9.103
17091SL     Si119864   5.127   1.316   5.673
17091SL      O119865   5.127   1.480   5.673
17091SL      H119866   5.127   1.578   5.673
17092SL     Si119867   1.403   8.243   9.220
17092SL      O119868   1.403   8.079   9.220
17092SL      H119869   1.403   7.981   9.220
17093SL     Si119870   8.825   8.406   3.693
17093SL      O119871   8.825   8.242   3.693
17093SL      H119872   8.825   8.144   3.693
17094SL     Si119873   4.850   8.262   4.396
17094SL      O119874   4.850   8.098   4.396
17094SL      H119875   4.850   8.000   4.396
17095SL     Si119876   0.993   8.328   8.428
17095SL      O119877   0.993   8.164   8.428
17095SL      H119878   0.993   8.066   8.428
17096SL     Si119879   2.704   1.145   1.299
17096SL      O119880   2.704   1.309   1.299
17096SL      H119881   2.704   1.407   1.299
17097SL     Si119882   7.686   1.336   5.272
17097SL      O119883   7.686   1.500   5.272
17097SL      H119884   7.686   1.598   5.272
17098SL     Si119885   2.168   8.339   5.346
17098SL      O119886   2.168   8.175   5.346
17098SL      H119887   2.168   8.077   5.346
17099SL     Si119888   6.120   1.282   7.459
17099SL      O119889   6.120   1.446   7.459
17099SL      H119890   6.120   1.544   7.459
17100SL     Si119891   2.405   8.412   7.164
17100SL      O119892   2.405   8.248   7.164
17100SL      H119893   2.405   8.150   7.164
17101SL     Si119894   2.388   1.407   7.067
17101SL      O119895   2.388   1.571   7.067
17101SL      H119896   2.388   1.669   7.067
17102SL     Si119897   5.888   1.354   4.981
17102SL      O119898   5.888   1.518   4.981
17102SL      H119899   5.888   1.616   4.981
17103SL     Si119900   3.491   1.344   8.232
17103SL      O119901   3.491   1.508   8.232
17103SL      H119902   3.491   1.606   8.232
17104SL     Si119903   1.114   8.255   1.861
17104SL      O119904   1.114   8.091   1.861
17104SL      H119905   1.114   7.993   1.861
17105SL     Si119906   3.718   8.295   7.823
17105SL      O119907   3.718   8.131   7.823
17105SL      H119908   3.718   8.033   7.823
17106SL     Si119909   2.494   8.403   6.364
17106SL      O119910   2.494   8.239   6.364
17106SL      H119911   2.494   8.141   6.364
17107SL     Si119912   5.644   8.251   1.498
17107SL      O119913   5.644   8.087   1.498
17107SL      H119914   5.644   7.989   1.498
17108SL     Si119915   2.845   8.370   8.088
17108SL      O119916   2.845   8.206   8.088
17108SL      H119917   2.845   8.108   8.088
17109SL     Si119918   2.887   1.358   2.068
17109SL      O119919   2.887   1.522   2.068
17109SL      H119920   2.887   1.620   2.068
17110SL     Si119921   1.143   8.287   3.626
17110SL      O119922   1.143   8.123   3.626
17110SL      H119923   1.143   8.025   3.626
17111SL     Si119924   9.581   8.335   1.091
17111SL      O119925   9.581   8.171   1.091
17111SL      H119926   9.581   8.073   1.091
17112SL     Si119927   5.262   8.265   0.008
17112SL      O119928   5.262   8.101   0.008
17112SL      H119929   5.262   8.003   0.008
17113SL     Si119930   2.146   8.272   6.828
17113SL      O119931   2.146   8.108   6.828
17113SL      H119932   2.146   8.010   6.828
17114SL     Si119933   2.201   1.361   2.983
17114SL      O119934   2.201   1.525   2.983
17114SL      H119935   2.201   1.623   2.983
17115SL     Si119936   8.614   8.262   8.547
17115SL      O119937   8.614   8.098   8.547
17115SL      H119938   8.614   8.000   8.547
17116SL     Si119939   8.964   1.211   0.659
17116SL      O119940   8.964   1.375   0.659
17116SL      H119941   8.964   1.473   0.659
17117SL     Si119942   2.663   8.380   2.070
17117SL      O119943   2.663   8.216   2.070
17117SL      H119944   2.663   8.118   2.070
17118SL     Si119945   3.672   8.167   4.486
17118SL      O119946   3.672   8.003   4.486
17118SL      H119947   3.672   7.905   4.486
17119SL     Si119948   6.102   8.405   9.574
17119SL      O119949   6.102   8.241   9.574
17119SL      H119950   6.102   8.143   9.574
17120SL     Si119951   6.155   1.314   0.980
17120SL      O119952   6.155   1.478   0.980
17120SL      H119953   6.155   1.576   0.980
17121SL     Si119954   9.147   8.304   4.356
17121SL      O119955   9.147   8.140   4.356
17121SL      H119956   9.147   8.042   4.356
17122SL     Si119957   5.007   8.404   7.349
17122SL      O119958   5.007   8.240   7.349
17122SL      H119959   5.007   8.142   7.349
17123SL     Si119960   9.308   8.361   9.267
17123SL      O119961   9.308   8.197   9.267
17123SL      H119962   9.308   8.099   9.267
17124SL     Si119963   3.453   1.127   3.195
17124SL      O119964   3.453   1.291   3.195
17124SL      H119965   3.453   1.389   3.195
17125SL     Si119966   9.076   1.464   4.642
17125SL      O119967   9.076   1.628   4.642
17125SL      H119968   9.076   1.726   4.642
17126SL     Si119969   1.356   1.268   3.310
17126SL      O119970   1.356   1.432   3.310
17126SL      H119971   1.356   1.530   3.310
17127SL     Si119972   4.890   1.074   5.044
17127SL      O119973   4.890   1.238   5.044
17127SL      H119974   4.890   1.336   5.044
17128SL     Si119975   6.253   1.241   3.056
17128SL      O119976   6.253   1.405   3.056
17128SL      H119977   6.253   1.503   3.056
17129SL     Si119978   3.937   8.345   6.952
17129SL      O119979   3.937   8.181   6.952
17129SL      H119980   3.937   8.083   6.952
17130SL     Si119981   4.222   8.327   5.671
17130SL      O119982   4.222   8.163   5.671
17130SL      H119983   4.222   8.065   5.671
17131SL     Si119984   5.012   8.238   8.527
17131SL      O119985   5.012   8.074   8.527
17131SL      H119986   5.012   7.976   8.527
17132SL     Si119987   6.530   1.360   7.740
17132SL      O119988   6.530   1.524   7.740
17132SL      H119989   6.530   1.622   7.740
17133SL     Si119990   6.921   1.339   9.254
17133SL      O119991   6.921   1.503   9.254
17133SL      H119992   6.921   1.601   9.254
17134SL     Si119993   0.326   8.357   3.056
17134SL      O119994   0.326   8.193   3.056
17134SL      H119995   0.326   8.095   3.056
17135SL     Si119996   0.112   8.280   2.557
17135SL      O119997   0.112   8.116   2.557
17135SL      H119998   0.112   8.018   2.557
17136SL     Si119999   7.915   1.225   5.703
17136SL      O120000   7.915   1.389   5.703
17136SL      H120001   7.915   1.487   5.703
17137SL     Si120002   0.192   8.281   3.500
17137SL      O120003   0.192   8.117   3.500
17137SL      H120004   0.192   8.019   3.500
17138SL     Si120005   0.833   1.166   3.503
17138SL      O120006   0.833   1.330   3.503
17138SL      H120007   0.833   1.428   3.503
17139SL     Si120008   7.594   8.206   8.553
17139SL      O120009   7.594   8.042   8.553
17139SL      H120010   7.594   7.944   8.553
17140SL     Si120011   1.906   8.254   5.453
17140SL      O120012   1.906   8.090   5.453
17140SL      H120013   1.906   7.992   5.453
17141SL     Si120014   2.157   8.314   5.040
17141SL      O120015   2.157   8.150   5.040
17141SL      H120016   2.157   8.052   5.040
17142SL     Si120017   6.938   1.225   0.231
17142SL      O120018   6.938   1.389   0.231
17142SL      H120019   6.938   1.487   0.231
17143SL     Si120020   6.208   1.144   0.329
17143SL      O120021   6.208   1.308   0.329
17143SL      H120022   6.208   1.406   0.329
17144SL     Si120023   1.374   8.355   7.283
17144SL      O120024   1.374   8.191   7.283
17144SL      H120025   1.374   8.093   7.283
17145SL     Si120026   7.470   1.156   8.721
17145SL      O120027   7.470   1.320   8.721
17145SL      H120028   7.470   1.418   8.721
17146SL     Si120029   4.537   8.324   1.605
17146SL      O120030   4.537   8.160   1.605
17146SL      H120031   4.537   8.062   1.605
17147SL     Si120032   3.030   8.249   7.855
17147SL      O120033   3.030   8.085   7.855
17147SL      H120034   3.030   7.987   7.855
17148SL     Si120035   1.456   1.198   5.987
17148SL      O120036   1.456   1.362   5.987
17148SL      H120037   1.456   1.460   5.987
17149SL     Si120038   8.520   1.208   4.407
17149SL      O120039   8.520   1.372   4.407
17149SL      H120040   8.520   1.470   4.407
17150SL     Si120041   7.742   8.365   5.745
17150SL      O120042   7.742   8.201   5.745
17150SL      H120043   7.742   8.103   5.745
17151SL     Si120044   0.393   8.335   1.148
17151SL      O120045   0.393   8.171   1.148
17151SL      H120046   0.393   8.073   1.148
17152SL     Si120047   2.729   1.374   8.499
17152SL      O120048   2.729   1.538   8.499
17152SL      H120049   2.729   1.636   8.499
17153SL     Si120050   3.629   8.372   5.181
17153SL      O120051   3.629   8.208   5.181
17153SL      H120052   3.629   8.110   5.181
17154SL     Si120053   7.628   8.494   0.007
17154SL      O120054   7.628   8.330   0.007
17154SL      H120055   7.628   8.232   0.007
17155SL     Si120056   5.953   1.280   9.024
17155SL      O120057   5.953   1.444   9.024
17155SL      H120058   5.953   1.542   9.024
17156SL     Si120059   2.564   8.343   0.440
17156SL      O120060   2.564   8.179   0.440
17156SL      H120061   2.564   8.081   0.440
17157SL     Si120062   5.588   1.324   8.273
17157SL      O120063   5.588   1.488   8.273
17157SL      H120064   5.588   1.586   8.273
17158SL     Si120065   9.512   1.305   4.570
17158SL      O120066   9.512   1.469   4.570
17158SL      H120067   9.512   1.567   4.570
17159SL     Si120068   6.301   1.326   2.157
17159SL      O120069   6.301   1.490   2.157
17159SL      H120070   6.301   1.588   2.157
17160SL     Si120071   5.738   8.196   3.443
17160SL      O120072   5.738   8.032   3.443
17160SL      H120073   5.738   7.934   3.443
17161SL     Si120074   0.044   8.327   9.001
17161SL      O120075   0.044   8.163   9.001
17161SL      H120076   0.044   8.065   9.001
17162SL     Si120077   8.968   8.390   5.872
17162SL      O120078   8.968   8.226   5.872
17162SL      H120079   8.968   8.128   5.872
17163SL     Si120080   2.929   8.392   1.916
17163SL      O120081   2.929   8.228   1.916
17163SL      H120082   2.929   8.130   1.916
17164SL     Si120083   4.816   8.262   3.177
17164SL      O120084   4.816   8.098   3.177
17164SL      H120085   4.816   8.000   3.177
17165SL     Si120086   2.168   8.251   0.171
17165SL      O120087   2.168   8.087   0.171
17165SL      H120088   2.168   7.989   0.171
17166SL     Si120089   2.802   8.257   0.979
17166SL      O120090   2.802   8.093   0.979
17166SL      H120091   2.802   7.995   0.979
17167SL     Si120092   6.461   8.285   8.680
17167SL      O120093   6.461   8.121   8.680
17167SL      H120094   6.461   8.023   8.680
17168SL     Si120095   8.897   1.337   0.933
17168SL      O120096   8.897   1.501   0.933
17168SL      H120097   8.897   1.599   0.933
17169SL     Si120098   7.195   8.364   0.018
17169SL      O120099   7.195   8.200   0.018
17169SL      H120100   7.195   8.102   0.018
17170SL     Si120101   8.954   1.279   3.039
17170SL      O120102   8.954   1.443   3.039
17170SL      H120103   8.954   1.541   3.039
17171SL     Si120104   3.256   1.322   7.023
17171SL      O120105   3.256   1.486   7.023
17171SL      H120106   3.256   1.584   7.023
17172SL     Si120107   6.876   8.437   4.737
17172SL      O120108   6.876   8.273   4.737
17172SL      H120109   6.876   8.175   4.737
17173SL     Si120110   2.931   8.304   6.318
17173SL      O120111   2.931   8.140   6.318
17173SL      H120112   2.931   8.042   6.318
17174SL     Si120113   0.316   1.161   7.723
17174SL      O120114   0.316   1.325   7.723
17174SL      H120115   0.316   1.423   7.723
17175SL     Si120116   7.647   1.297   6.414
17175SL      O120117   7.647   1.461   6.414
17175SL      H120118   7.647   1.559   6.414
17176SL     Si120119   8.713   1.275   0.093
17176SL      O120120   8.713   1.439   0.093
17176SL      H120121   8.713   1.537   0.093
17177SL     Si120122   1.171   1.238   8.731
17177SL      O120123   1.171   1.402   8.731
17177SL      H120124   1.171   1.500   8.731
17178SL     Si120125   5.948   1.318   4.677
17178SL      O120126   5.948   1.482   4.677
17178SL      H120127   5.948   1.580   4.677
17179SL     Si120128   4.563   8.265   6.091
17179SL      O120129   4.563   8.101   6.091
17179SL      H120130   4.563   8.003   6.091
17180SL     Si120131   4.799   8.299   7.697
17180SL      O120132   4.799   8.135   7.697
17180SL      H120133   4.799   8.037   7.697
17181SL     Si120134   3.791   1.413   1.198
17181SL      O120135   3.791   1.577   1.198
17181SL      H120136   3.791   1.675   1.198
17182SL     Si120137   8.774   1.237   3.302
17182SL      O120138   8.774   1.401   3.302
17182SL      H120139   8.774   1.499   3.302
17183SL     Si120140   3.943   1.264   6.332
17183SL      O120141   3.943   1.428   6.332
17183SL      H120142   3.943   1.526   6.332
17184SL     Si120143   8.373   1.377   9.337
17184SL      O120144   8.373   1.541   9.337
17184SL      H120145   8.373   1.639   9.337
17185SL     Si120146   3.632   8.382   7.553
17185SL      O120147   3.632   8.218   7.553
17185SL      H120148   3.632   8.120   7.553
17186SL     Si120149   4.982   8.371   4.653
17186SL      O120150   4.982   8.207   4.653
17186SL      H120151   4.982   8.109   4.653
17187SL     Si120152   9.121   1.236   7.007
17187SL      O120153   9.121   1.400   7.007
17187SL      H120154   9.121   1.498   7.007
17188SL     Si120155   9.004   1.290   0.171
17188SL      O120156   9.004   1.454   0.171
17188SL      H120157   9.004   1.552   0.171
17189SL     Si120158   6.702   8.241   1.604
17189SL      O120159   6.702   8.077   1.604
17189SL      H120160   6.702   7.979   1.604
17190SL     Si120161   4.989   8.250   2.336
17190SL      O120162   4.989   8.086   2.336
17190SL      H120163   4.989   7.988   2.336
17191SL     Si120164   0.819   8.370   1.888
17191SL      O120165   0.819   8.206   1.888
17191SL      H120166   0.819   8.108   1.888
17192SL     Si120167   9.103   8.389   7.972
17192SL      O120168   9.103   8.225   7.972
17192SL      H120169   9.103   8.127   7.972
17193SL     Si120170   6.473   1.228   4.759
17193SL      O120171   6.473   1.392   4.759
17193SL      H120172   6.473   1.490   4.759
17194SL     Si120173   3.737   8.291   8.406
17194SL      O120174   3.737   8.127   8.406
17194SL      H120175   3.737   8.029   8.406
17195SL     Si120176   4.006   1.385   1.414
17195SL      O120177   4.006   1.549   1.414
17195SL      H120178   4.006   1.647   1.414
17196SL     Si120179   4.293   1.363   7.838
17196SL      O120180   4.293   1.527   7.838
17196SL      H120181   4.293   1.625   7.838
17197SL     Si120182   5.192   1.357   5.377
17197SL      O120183   5.192   1.521   5.377
17197SL      H120184   5.192   1.619   5.377
17198SL     Si120185   1.714   1.205   8.061
17198SL      O120186   1.714   1.369   8.061
17198SL      H120187   1.714   1.467   8.061
17199SL     Si120188   5.100   1.286   9.576
17199SL      O120189   5.100   1.450   9.576
17199SL      H120190   5.100   1.548   9.576
17200SL     Si120191   9.277   1.279   8.424
17200SL      O120192   9.277   1.443   8.424
17200SL      H120193   9.277   1.541   8.424
17201SL     Si120194   3.637   8.214   3.461
17201SL      O120195   3.637   8.050   3.461
17201SL      H120196   3.637   7.952   3.461
17202SL     Si120197   4.421   1.293   1.549
17202SL      O120198   4.421   1.457   1.549
17202SL      H120199   4.421   1.555   1.549
17203SL     Si120200   4.134   8.236   0.844
17203SL      O120201   4.134   8.072   0.844
17203SL      H120202   4.134   7.974   0.844
17204SL     Si120203   7.308   1.237   4.789
17204SL      O120204   7.308   1.401   4.789
17204SL      H120205   7.308   1.499   4.789
17205SL     Si120206   8.318   1.368   5.326
17205SL      O120207   8.318   1.532   5.326
17205SL      H120208   8.318   1.630   5.326
17206SL     Si120209   7.506   8.241   8.260
17206SL      O120210   7.506   8.077   8.260
17206SL      H120211   7.506   7.979   8.260
17207SL     Si120212   5.597   1.358   7.480
17207SL      O120213   5.597   1.522   7.480
17207SL      H120214   5.597   1.620   7.480
17208SL     Si120215   1.342   8.320   1.291
17208SL      O120216   1.342   8.156   1.291
17208SL      H120217   1.342   8.058   1.291
17209SL     Si120218   4.720   1.391   1.531
17209SL      O120219   4.720   1.555   1.531
17209SL      H120220   4.720   1.653   1.531
17210SL     Si120221   7.584   1.408   7.836
17210SL      O120222   7.584   1.572   7.836
17210SL      H120223   7.584   1.670   7.836
17211SL     Si120224   7.615   1.222   5.781
17211SL      O120225   7.615   1.386   5.781
17211SL      H120226   7.615   1.484   5.781
17212SL     Si120227   7.093   8.285   1.923
17212SL      O120228   7.093   8.121   1.923
17212SL      H120229   7.093   8.023   1.923
17213SL     Si120230   5.167   1.328   7.241
17213SL      O120231   5.167   1.492   7.241
17213SL      H120232   5.167   1.590   7.241
17214SL     Si120233   7.124   1.047   1.788
17214SL      O120234   7.124   1.211   1.788
17214SL      H120235   7.124   1.309   1.788
17215SL     Si120236   3.829   8.249   3.827
17215SL      O120237   3.829   8.085   3.827
17215SL      H120238   3.829   7.987   3.827
17216SL     Si120239   9.510   8.226   6.687
17216SL      O120240   9.510   8.062   6.687
17216SL      H120241   9.510   7.964   6.687
17217SL     Si120242   0.321   1.278   7.455
17217SL      O120243   0.321   1.442   7.455
17217SL      H120244   0.321   1.540   7.455
17218SL     Si120245   3.812   1.399   0.527
17218SL      O120246   3.812   1.563   0.527
17218SL      H120247   3.812   1.661   0.527
17219SL     Si120248   4.234   8.341   3.893
17219SL      O120249   4.234   8.177   3.893
17219SL      H120250   4.234   8.079   3.893
17220SL     Si120251   1.368   8.473   8.076
17220SL      O120252   1.368   8.309   8.076
17220SL      H120253   1.368   8.211   8.076
17221SL     Si120254   7.632   1.173   1.083
17221SL      O120255   7.632   1.337   1.083
17221SL      H120256   7.632   1.435   1.083
17222SL     Si120257   6.126   1.277   5.844
17222SL      O120258   6.126   1.441   5.844
17222SL      H120259   6.126   1.539   5.844
17223SL     Si120260   7.688   1.235   8.903
17223SL      O120261   7.688   1.399   8.903
17223SL      H120262   7.688   1.497   8.903
17224SL     Si120263   2.502   8.240   0.962
17224SL      O120264   2.502   8.076   0.962
17224SL      H120265   2.502   7.978   0.962
17225SL     Si120266   4.383   1.151   5.254
17225SL      O120267   4.383   1.315   5.254
17225SL      H120268   4.383   1.413   5.254
17226SL     Si120269   7.149   1.311   8.425
17226SL      O120270   7.149   1.475   8.425
17226SL      H120271   7.149   1.573   8.425
17227SL     Si120272   6.228   1.306   9.163
17227SL      O120273   6.228   1.470   9.163
17227SL      H120274   6.228   1.568   9.163
17228SL     Si120275   1.471   1.328   1.031
17228SL      O120276   1.471   1.492   1.031
17228SL      H120277   1.471   1.590   1.031
17229SL     Si120278   3.860   1.300   9.357
17229SL      O120279   3.860   1.464   9.357
17229SL      H120280   3.860   1.562   9.357
17230SL     Si120281   8.231   8.213   4.423
17230SL      O120282   8.231   8.049   4.423
17230SL      H120283   8.231   7.951   4.423
17231SL     Si120284   2.288   1.227   1.574
17231SL      O120285   2.288   1.391   1.574
17231SL      H120286   2.288   1.489   1.574
17232SL     Si120287   6.497   1.374   4.204
17232SL      O120288   6.497   1.538   4.204
17232SL      H120289   6.497   1.636   4.204
17233SL     Si120290   3.890   8.413   4.785
17233SL      O120291   3.890   8.249   4.785
17233SL      H120292   3.890   8.151   4.785
17234SL     Si120293   9.421   8.360   1.557
17234SL      O120294   9.421   8.196   1.557
17234SL      H120295   9.421   8.098   1.557
17235SL     Si120296   7.234   1.203   5.086
17235SL      O120297   7.234   1.367   5.086
17235SL      H120298   7.234   1.465   5.086
17236SL     Si120299   5.476   1.368   7.195
17236SL      O120300   5.476   1.532   7.195
17236SL      H120301   5.476   1.630   7.195
17237SL     Si120302   1.037   8.253   7.671
17237SL      O120303   1.037   8.089   7.671
17237SL      H120304   1.037   7.991   7.671
17238SL     Si120305   0.039   8.373   4.305
17238SL      O120306   0.039   8.209   4.305
17238SL      H120307   0.039   8.111   4.305
17239SL     Si120308   0.352   8.337   4.919
17239SL      O120309   0.352   8.173   4.919
17239SL      H120310   0.352   8.075   4.919
17240SL     Si120311   4.242   8.538   7.882
17240SL      O120312   4.242   8.374   7.882
17240SL      H120313   4.242   8.276   7.882
17241SL     Si120314   1.530   1.331   8.986
17241SL      O120315   1.530   1.495   8.986
17241SL      H120316   1.530   1.593   8.986
17242SL     Si120317   2.799   1.344   3.395
17242SL      O120318   2.799   1.508   3.395
17242SL      H120319   2.799   1.606   3.395
17243SL     Si120320   5.063   1.408   1.971
17243SL      O120321   5.063   1.572   1.971
17243SL      H120322   5.063   1.670   1.971
17244SL     Si120323   4.209   1.371   3.564
17244SL      O120324   4.209   1.535   3.564
17244SL      H120325   4.209   1.633   3.564
17245SL     Si120326   4.162   1.193   5.988
17245SL      O120327   4.162   1.357   5.988
17245SL      H120328   4.162   1.455   5.988
17246SL     Si120329   7.071   8.169   2.660
17246SL      O120330   7.071   8.005   2.660
17246SL      H120331   7.071   7.907   2.660
17247SL     Si120332   8.301   8.378   6.487
17247SL      O120333   8.301   8.214   6.487
17247SL      H120334   8.301   8.116   6.487
17248SL     Si120335   0.894   1.403   4.159
17248SL      O120336   0.894   1.567   4.159
17248SL      H120337   0.894   1.665   4.159
17249SL     Si120338   8.069   8.288   3.216
17249SL      O120339   8.069   8.124   3.216
17249SL      H120340   8.069   8.026   3.216
17250SL     Si120341   0.820   1.351   5.162
17250SL      O120342   0.820   1.515   5.162
17250SL      H120343   0.820   1.613   5.162
17251SL     Si120344   4.279   8.470   1.251
17251SL      O120345   4.279   8.306   1.251
17251SL      H120346   4.279   8.208   1.251
17252SL     Si120347   1.698   8.279   0.222
17252SL      O120348   1.698   8.115   0.222
17252SL      H120349   1.698   8.017   0.222
17253SL     Si120350   0.600   1.298   3.625
17253SL      O120351   0.600   1.462   3.625
17253SL      H120352   0.600   1.560   3.625
17254SL     Si120353   5.032   1.271   8.907
17254SL      O120354   5.032   1.435   8.907
17254SL      H120355   5.032   1.533   8.907
17255SL     Si120356   0.384   1.349   8.855
17255SL      O120357   0.384   1.513   8.855
17255SL      H120358   0.384   1.611   8.855
17256SL     Si120359   6.807   8.291   4.455
17256SL      O120360   6.807   8.127   4.455
17256SL      H120361   6.807   8.029   4.455
17257SL     Si120362   5.352   8.301   6.189
17257SL      O120363   5.352   8.137   6.189
17257SL      H120364   5.352   8.039   6.189
17258SL     Si120365   9.114   8.327   3.243
17258SL      O120366   9.114   8.163   3.243
17258SL      H120367   9.114   8.065   3.243
17259SL     Si120368   4.824   8.292   0.713
17259SL      O120369   4.824   8.128   0.713
17259SL      H120370   4.824   8.030   0.713
17260SL     Si120371   6.438   1.136   3.459
17260SL      O120372   6.438   1.300   3.459
17260SL      H120373   6.438   1.398   3.459
17261SL     Si120374   7.173   1.231   7.053
17261SL      O120375   7.173   1.395   7.053
17261SL      H120376   7.173   1.493   7.053
17262SL     Si120377   9.498   8.229   1.821
17262SL      O120378   9.498   8.065   1.821
17262SL      H120379   9.498   7.967   1.821
17263SL     Si120380   3.120   1.183   1.035
17263SL      O120381   3.120   1.347   1.035
17263SL      H120382   3.120   1.445   1.035
17264SL     Si120383   1.417   1.377   6.968
17264SL      O120384   1.417   1.541   6.968
17264SL      H120385   1.417   1.639   6.968
17265SL     Si120386   3.650   1.373   1.739
17265SL      O120387   3.650   1.537   1.739
17265SL      H120388   3.650   1.635   1.739
17266SL     Si120389   0.214   1.169   9.562
17266SL      O120390   0.214   1.333   9.562
17266SL      H120391   0.214   1.431   9.562
17267SL     Si120392   9.048   1.342   8.220
17267SL      O120393   9.048   1.506   8.220
17267SL      H120394   9.048   1.604   8.220
17268SL     Si120395   6.053   8.356   7.901
17268SL      O120396   6.053   8.192   7.901
17268SL      H120397   6.053   8.094   7.901
17269SL     Si120398   7.327   1.397   7.678
17269SL      O120399   7.327   1.561   7.678
17269SL      H120400   7.327   1.659   7.678
17270SL     Si120401   8.161   1.398   9.566
17270SL      O120402   8.161   1.562   9.566
17270SL      H120403   8.161   1.660   9.566
17271SL     Si120404   3.135   0.865   3.370
17271SL      O120405   3.135   1.029   3.370
17271SL      H120406   3.135   1.127   3.370
17272SL     Si120407   4.955   1.161   6.430
17272SL      O120408   4.955   1.325   6.430
17272SL      H120409   4.955   1.423   6.430
17273SL     Si120410   3.132   1.266   0.265
17273SL      O120411   3.132   1.430   0.265
17273SL      H120412   3.132   1.528   0.265
17274SL     Si120413   5.336   8.366   7.733
17274SL      O120414   5.336   8.202   7.733
17274SL      H120415   5.336   8.104   7.733
17275SL     Si120416   2.543   8.257   9.564
17275SL      O120417   2.543   8.093   9.564
17275SL      H120418   2.543   7.995   9.564
17276SL     Si120419   1.318   1.203   7.529
17276SL      O120420   1.318   1.367   7.529
17276SL      H120421   1.318   1.465   7.529
17277SL     Si120422   4.275   8.361   1.969
17277SL      O120423   4.275   8.197   1.969
17277SL      H120424   4.275   8.099   1.969
17278SL     Si120425   8.252   1.272   6.161
17278SL      O120426   8.252   1.436   6.161
17278SL      H120427   8.252   1.534   6.161
17279SL     Si120428   0.777   1.303   0.934
17279SL      O120429   0.777   1.467   0.934
17279SL      H120430   0.777   1.565   0.934
17280SL     Si120431   4.511   8.313   7.317
17280SL      O120432   4.511   8.149   7.317
17280SL      H120433   4.511   8.051   7.317
17281SL     Si120434   5.338   1.335   0.945
17281SL      O120435   5.338   1.499   0.945
17281SL      H120436   5.338   1.597   0.945
17282SL     Si120437   4.247   1.298   6.407
17282SL      O120438   4.247   1.462   6.407
17282SL      H120439   4.247   1.560   6.407
17283SL     Si120440   9.553   1.354   7.754
17283SL      O120441   9.553   1.518   7.754
17283SL      H120442   9.553   1.616   7.754
17284SL     Si120443   3.791   8.588   2.170
17284SL      O120444   3.791   8.424   2.170
17284SL      H120445   3.791   8.326   2.170
17285SL     Si120446   7.048   8.398   6.047
17285SL      O120447   7.048   8.234   6.047
17285SL      H120448   7.048   8.136   6.047
17286SL     Si120449   4.190   1.324   7.136
17286SL      O120450   4.190   1.488   7.136
17286SL      H120451   4.190   1.586   7.136
17287SL     Si120452   4.296   8.420   9.485
17287SL      O120453   4.296   8.256   9.485
17287SL      H120454   4.296   8.158   9.485
17288SL     Si120455   6.504   1.316   1.932
17288SL      O120456   6.504   1.480   1.932
17288SL      H120457   6.504   1.578   1.932
17289SL     Si120458   3.810   1.344   5.368
17289SL      O120459   3.810   1.508   5.368
17289SL      H120460   3.810   1.606   5.368
17290SL     Si120461   7.156   8.273   3.846
17290SL      O120462   7.156   8.109   3.846
17290SL      H120463   7.156   8.011   3.846
17291SL     Si120464   1.059   1.284   6.907
17291SL      O120465   1.059   1.448   6.907
17291SL      H120466   1.059   1.546   6.907
17292SL     Si120467   0.480   8.296   0.011
17292SL      O120468   0.480   8.132   0.011
17292SL      H120469   0.480   8.034   0.011
17293SL     Si120470   7.635   1.228   7.001
17293SL      O120471   7.635   1.392   7.001
17293SL      H120472   7.635   1.490   7.001
17294SL     Si120473   6.640   1.262   9.385
17294SL      O120474   6.640   1.426   9.385
17294SL      H120475   6.640   1.524   9.385
17295SL     Si120476   6.855   1.235   7.057
17295SL      O120477   6.855   1.399   7.057
17295SL      H120478   6.855   1.497   7.057
17296SL     Si120479   0.820   8.368   0.249
17296SL      O120480   0.820   8.204   0.249
17296SL      H120481   0.820   8.106   0.249
17297SL     Si120482   9.531   1.224   3.515
17297SL      O120483   9.531   1.388   3.515
17297SL      H120484   9.531   1.486   3.515
17298SL     Si120485   1.040   1.352   8.020
17298SL      O120486   1.040   1.516   8.020
17298SL      H120487   1.040   1.614   8.020
17299SL     Si120488   8.251   8.167   5.165
17299SL      O120489   8.251   8.003   5.165
17299SL      H120490   8.251   7.905   5.165
17300SL     Si120491   0.533   1.280   1.796
17300SL      O120492   0.533   1.444   1.796
17300SL      H120493   0.533   1.542   1.796
17301SL     Si120494   3.941   1.427   5.632
17301SL      O120495   3.941   1.591   5.632
17301SL      H120496   3.941   1.689   5.632
17302SL     Si120497   1.056   1.205   3.683
17302SL      O120498   1.056   1.369   3.683
17302SL      H120499   1.056   1.467   3.683
17303SL     Si120500   3.031   8.251   7.005
17303SL      O120501   3.031   8.087   7.005
17303SL      H120502   3.031   7.989   7.005
17304SL     Si120503   5.689   1.366   3.394
17304SL      O120504   5.689   1.530   3.394
17304SL      H120505   5.689   1.628   3.394
17305SL     Si120506   3.251   1.383   6.596
17305SL      O120507   3.251   1.547   6.596
17305SL      H120508   3.251   1.645   6.596
17306SL     Si120509   7.410   1.336   6.622
17306SL      O120510   7.410   1.500   6.622
17306SL      H120511   7.410   1.598   6.622
17307SLG    Si120512   0.859   1.416   2.304
17307SLG     O120513   0.859   1.580   2.304
17307SLG     H120514   0.859   1.678   2.304
17307SLG     O220515   0.975   1.532   2.304
17307SLG     H220516   0.975   1.630   2.304
17308SLG    Si120517   9.403   8.296   7.585
17308SLG     O120518   9.403   8.132   7.585
17308SLG     H120519   9.403   8.034   7.585
17308SLG     O220520   9.519   8.180   7.585
17308SLG     H220521   9.519   8.082   7.585
17309SLG    Si120522   2.022   8.191   4.667
17309SLG     O120523   2.022   8.027   4.667
17309SLG     H120524   2.022   7.929   4.667
17309SLG     O220525   2.138   8.075   4.667
17309SLG     H220526   2.138   7.977   4.667
17310SLG    Si120527   4.714   8.208   5.602
17310SLG     O120528   4.714   8.044   5.602
17310SLG     H120529   4.714   7.946   5.602
17310SLG     O220530   4.830   8.092   5.602
17310SLG     H220531   4.830   7.994   5.602
17311SLG    Si120532   5.952   8.267   2.285
17311SLG     O120533   5.952   8.103   2.285
17311SLG     H120534   5.952   8.005   2.285
17311SLG     O220535   6.068   8.151   2.285
17311SLG     H220536   6.068   8.053   2.285
17312SLG    Si120537   3.290   1.382   6.280
17312SLG     O120538   3.290   1.546   6.280
17312SLG     H120539   3.290   1.644   6.280
17312SLG     O220540   3.406   1.498   6.280
17312SLG     H220541   3.406   1.596   6.280
17313SLG    Si120542   7.263   8.241   7.527
17313SLG     O120543   7.263   8.077   7.527
17313SLG     H120544   7.263   7.979   7.527
17313SLG     O220545   7.379   8.125   7.527
17313SLG     H220546   7.379   8.027   7.527
17314SLG    Si120547   6.653   8.247   7.587
17314SLG     O120548   6.653   8.083   7.587
17314SLG     H120549   6.653   7.985   7.587
17314SLG     O220550   6.769   8.131   7.587
17314SLG     H220551   6.769   8.033   7.587
17315SLG    Si120552   1.378   1.400   4.412
17315SLG     O120553   1.378   1.564   4.412
17315SLG     H120554   1.378   1.662   4.412
17315SLG     O220555   1.494   1.516   4.412
17315SLG     H220556   1.494   1.614   4.412
17316SLG    Si120557   4.945   8.185   0.271
17316SLG     O120558   4.945   8.021   0.271
17316SLG     H120559   4.945   7.923   0.271
17316SLG     O220560   5.061   8.069   0.271
17316SLG     H220561   5.061   7.971   0.271
17317SLG    Si120562   2.500   1.408   5.254
17317SLG     O120563   2.500   1.572   5.254
17317SLG     H120564   2.500   1.670   5.254
17317SLG     O220565   2.616   1.524   5.254
17317SLG     H220566   2.616   1.622   5.254
17318SLG    Si120567   9.589   1.417   9.227
17318SLG     O120568   9.589   1.581   9.227
17318SLG     H120569   9.589   1.679   9.227
17318SLG     O220570   9.705   1.533   9.227
17318SLG     H220571   9.705   1.631   9.227
17319SLG    Si120572   5.883   1.398   7.872
17319SLG     O120573   5.883   1.562   7.872
17319SLG     H120574   5.883   1.660   7.872
17319SLG     O220575   5.999   1.514   7.872
17319SLG     H220576   5.999   1.612   7.872
17320SLG    Si120577   1.598   8.261   8.765
17320SLG     O120578   1.598   8.097   8.765
17320SLG     H120579   1.598   7.999   8.765
17320SLG     O220580   1.714   8.145   8.765
17320SLG     H220581   1.714   8.047   8.765
17321SLG    Si120582   2.694   8.220   7.471
17321SLG     O120583   2.694   8.056   7.471
17321SLG     H120584   2.694   7.958   7.471
17321SLG     O220585   2.810   8.104   7.471
17321SLG     H220586   2.810   8.006   7.471
17322SLG    Si120587   3.907   1.353   6.760
17322SLG     O120588   3.907   1.517   6.760
17322SLG     H120589   3.907   1.615   6.760
17322SLG     O220590   4.023   1.469   6.760
17322SLG     H220591   4.023   1.567   6.760
17323SLG    Si120592   4.069   1.290   3.091
17323SLG     O120593   4.069   1.454   3.091
17323SLG     H120594   4.069   1.552   3.091
17323SLG     O220595   4.185   1.406   3.091
17323SLG     H220596   4.185   1.504   3.091
17324SLG    Si120597   0.343   1.362   2.386
17324SLG     O120598   0.343   1.526   2.386
17324SLG     H120599   0.343   1.624   2.386
17324SLG     O220600   0.459   1.478   2.386
17324SLG     H220601   0.459   1.576   2.386
17325SLG    Si120602   0.200   1.330   3.898
17325SLG     O120603   0.200   1.494   3.898
17325SLG     H120604   0.200   1.592   3.898
17325SLG     O220605   0.316   1.446   3.898
17325SLG     H220606   0.316   1.544   3.898
17326SLG    Si120607   8.299   1.387   5.636
17326SLG     O120608   8.299   1.551   5.636
17326SLG     H120609   8.299   1.649   5.636
17326SLG     O220610   8.415   1.503   5.636
17326SLG     H220611   8.415   1.601   5.636
17327SLG    Si120612   8.291   8.241   0.594
17327SLG     O120613   8.291   8.077   0.594
17327SLG     H120614   8.291   7.979   0.594
17327SLG     O220615   8.407   8.125   0.594
17327SLG     H220616   8.407   8.027   0.594
17328SLG    Si120617   1.880   8.226   2.152
17328SLG     O120618   1.880   8.062   2.152
17328SLG     H120619   1.880   7.964   2.152
17328SLG     O220620   1.996   8.110   2.152
17328SLG     H220621   1.996   8.012   2.152
17329SLG    Si120622   8.225   8.235   7.040
17329SLG     O120623   8.225   8.071   7.040
17329SLG     H120624   8.225   7.973   7.040
17329SLG     O220625   8.341   8.119   7.040
17329SLG     H220626   8.341   8.021   7.040
17330SLG    Si120627   6.188   1.416   3.734
17330SLG     O120628   6.188   1.580   3.734
17330SLG     H120629   6.188   1.678   3.734
17330SLG     O220630   6.304   1.532   3.734
17330SLG     H220631   6.304   1.630   3.734
17331SLG    Si120632   0.785   8.254   2.157
17331SLG     O120633   0.785   8.090   2.157
17331SLG     H120634   0.785   7.992   2.157
17331SLG     O220635   0.901   8.138   2.157
17331SLG     H220636   0.901   8.040   2.157
17332SLG    Si120637   4.867   8.338   6.476
17332SLG     O120638   4.867   8.174   6.476
17332SLG     H120639   4.867   8.076   6.476
17332SLG     O220640   4.983   8.222   6.476
17332SLG     H220641   4.983   8.124   6.476
17333SLG    Si120642   0.168   8.271   5.329
17333SLG     O120643   0.168   8.107   5.329
17333SLG     H120644   0.168   8.009   5.329
17333SLG     O220645   0.284   8.155   5.329
17333SLG     H220646   0.284   8.057   5.329
9.605 9.605 9.605
